Band structure                          
   1.00000000000000     
     3.822700    0.000000    0.000000
    -1.911350    3.310555    0.000000
     0.000000    0.000000    6.260700
   Zn   S 
     2     2
Direct
  0.333300  0.666700  0.000000
  0.666700  0.333300  0.500000
  0.333300  0.666700  0.374800
  0.666700  0.333300  0.874800
 
   32   32   56
  1.5745      1.6858      1.9248      2.3180      2.9110      3.7486      4.8692      6.3328      8.2409      10.696    
  13.709      17.136      20.701      24.071      26.901      28.856      29.639      29.082      27.230      24.347    
  20.840      17.144      13.626      10.535      7.9843      5.9767      4.4538      3.3400      2.5615      2.0481    
  1.7380      1.5881      1.5881      1.6262      1.8051      2.1317      2.6377      3.3826      4.4293      5.8209    
  7.5933      9.8028      12.511      15.708      19.235      22.784      25.972      28.427      29.836      29.990    
  28.840      26.532      23.389      19.813      16.189      12.813      9.8773      7.4666      5.5790      4.1587    
  3.1310      2.4214      1.9615      1.6952      1.7380      1.6835      1.7902      2.0572      2.4963      3.1544    
  4.1147      5.4593      7.2289      9.4305      12.078      15.197      18.746      22.534      26.204      29.322    
  31.482      32.394      31.921      30.118      27.229      23.640      19.770      15.981      12.536      9.5921    
  7.2111      5.3740      4.0119      3.0402      2.3792      1.9615      2.0481      1.8782      1.8933      2.0924    
  2.4819      3.0812      3.9461      5.1784      6.8891      9.1407      11.927      15.203      18.913      22.949    
  27.075      30.902      33.946      35.769      36.089      34.851      32.234      28.605      24.423      20.131    
  16.077      12.488      9.4852      7.0992      5.2889      3.9681      3.0402      2.4214      2.5615      2.2448    
  2.1466      2.2575      2.5861      3.1460      3.9623      5.1033      6.6956      8.8793      11.728      15.210    
  19.222      23.635      28.265      32.798      36.764      39.619      40.910      40.419      38.214      34.625    
  30.147      25.312      20.574      16.248      12.516      9.4556      7.0686      5.2889      4.0119      3.1310    
  3.3400      2.8361      2.5962      2.5937      2.8274      3.3204      4.1095      5.2414      6.7906      8.8733    
  11.621      15.116      19.341      24.169      29.381      34.655      39.535      43.461      45.869      46.360    
  44.824      41.488      36.841      31.499      26.043      20.910      16.364      12.534      9.4556      7.0992    
  5.3740      4.1587      4.4538      3.7213      3.3068      3.1662      3.2789      3.6595      4.3625      5.4609    
  7.0177      9.0924      11.774      15.184      19.421      24.471      30.152      36.111      41.863      46.824    
  50.364      51.989      51.435      48.716      44.194      38.525      32.412      26.450      21.034      16.364    
  12.516      9.4852      7.2111      5.5790      5.9767      4.9804      4.3679      4.0718      4.0547      4.3057    
  4.8575      5.7964      7.2374      9.2787      11.984      15.408      19.628      24.706      30.590      37.014    
  43.484      49.316      53.783      56.428      56.996      55.351      51.539      45.961      39.427      32.732    
  26.450      20.910      16.248      12.488      9.5921      7.4666      7.9843      6.7073      5.9006      5.4556    
  5.3087      5.4291      5.8175      6.5300      7.6996      9.5040      12.084      15.492      19.728      24.806    
  30.735      37.379      44.321      50.795      55.930      59.297      60.783      60.301      57.704      52.983    
  46.571      39.427      32.412      26.043      20.574      16.077      12.536      9.8773      10.535      9.0088    
  8.0652      7.5382      7.3006      7.2881      7.4971      7.9747      8.8269      10.229      12.391      15.471    
  19.523      24.526      30.438      37.149      44.332      51.265      56.921      60.777      62.838      63.235    
  61.871      58.472      52.983      45.961      38.525      31.499      25.312      20.131      15.981      12.813    
  13.626      11.969      11.038      10.605      10.438      10.373      10.375      10.523      10.956      11.845    
  13.395      15.832      19.328      23.939      29.607      36.190      43.392      50.620      56.789      61.127    
  63.583      64.487      64.001      61.871      57.704      51.539      44.194      36.841      30.147      24.423    
  19.770      16.189      17.144      15.569      14.911      14.878      15.111      15.280      15.205      14.928    
  14.676      14.753      15.449      17.017      19.657      23.482      28.490      34.569      41.464      48.689    
  55.313      60.266      63.215      64.482      64.487      63.235      60.301      55.351      48.716      41.488    
  34.625      28.605      23.640      19.813      20.840      19.611      19.543      20.274      21.308      22.137    
  22.376      21.900      20.902      19.824      19.190      19.439      20.846      23.527      27.485      32.636    
  38.790      45.557      52.259      57.807      61.445      63.215      63.583      62.838      60.783      56.996    
  51.435      44.824      38.214      32.234      27.229      23.389      24.347      23.702      24.479      26.231    
  28.590      31.784      34.237      34.076      31.327      27.926      25.521      23.925      23.453      24.443    
  26.940      30.806      35.820      41.661      47.817      53.519      57.807      60.266      61.127      60.777    
  59.297      56.428      51.989      46.360      40.419      34.851      30.118      26.532      27.230      27.339    
  29.064      32.628      41.840      56.446      70.200      75.705      69.765      55.669      40.879      31.679    
  28.336      27.022      27.413      29.510      33.020      37.559      42.683      47.817      52.259      55.313    
  56.789      56.921      55.930      53.783      50.364      45.869      40.910      36.089      31.921      28.840    
  29.082      30.030      32.742      41.724      66.241      105.24      146.34      172.61      172.21      145.27    
  103.83      64.830      40.545      31.952      29.757      29.408      30.895      33.795      37.559      41.661    
  45.557      48.689      50.620      51.265      50.795      49.316      46.824      43.461      39.619      35.769    
  32.394      29.990      29.639      31.408      35.422      52.099      97.187      171.58      257.90      327.37    
  353.56      326.05      255.80      169.37      95.343      50.778      34.657      31.235      30.104      30.895    
  33.020      35.820      38.790      41.464      43.392      44.332      44.321      43.484      41.863      39.535    
  36.764      33.946      31.482      29.836      28.856      31.312      36.443      59.144      123.29      235.88    
  378.89      513.30      594.67      593.76      510.94      375.96      233.17      121.19      57.734      35.710    
  31.235      29.408      29.510      30.806      32.636      34.569      36.190      37.149      37.379      37.014    
  36.111      34.655      32.798      30.902      29.322      28.427      26.901      29.805      35.329      59.121    
  133.42      275.28      472.48      682.04      843.49      903.76      841.90      679.37      469.46      272.52    
  131.29      57.734      34.657      29.757      27.413      26.940      27.485      28.490      29.607      30.438    
  30.735      30.590      30.152      29.381      28.265      27.075      26.204      25.972      24.071      27.138    
  32.604      52.052      123.12      274.94      507.28      782.29      1031.7      1180.7      1180.2      1030.2    
  780.09      504.73      272.52      121.19      50.778      31.952      27.022      24.443      23.527      23.482    
  23.939      24.526      24.806      24.706      24.471      24.169      23.635      22.949      22.534      22.784    
  20.701      23.679      28.997      41.719      97.041      235.16      471.32      781.45      1101.4      1344.6    
  1435.6      1344.3      1100.7      780.09      469.46      233.17      95.343      40.545      28.336      23.453    
  20.846      19.657      19.328      19.523      19.728      19.628      19.421      19.341      19.222      18.913    
  18.746      19.235      17.136      19.837      24.637      32.764      66.337      171.07      377.37      680.07    
  1030.2      1344.0      1530.7      1530.9      1344.3      1030.2      679.37      375.96      169.37      64.830    
  31.679      23.925      19.439      17.017      15.832      15.471      15.492      15.408      15.184      15.116    
  15.210      15.203      15.197      15.708      13.709      16.004      20.019      26.627      42.255      105.32    
  256.97      511.36      841.40      1179.2      1434.8      1530.7      1435.6      1180.2      841.90      510.94    
  255.80      103.83      40.879      25.521      19.190      15.449      13.395      12.391      12.084      11.984    
  11.774      11.621      11.728      11.927      12.078      12.511      10.696      12.512      15.668      20.999    
  29.289      57.093      146.42      326.44      593.10      902.28      1179.2      1344.0      1344.6      1180.7    
  903.76      593.76      326.05      145.27      55.669      27.926      19.824      14.753      11.845      10.229    
  9.5040      9.2787      9.0924      8.8733      8.8793      9.1407      9.4305      9.8028      8.2409      9.5837    
  11.937      15.869      22.263      32.770      71.085      172.92      353.18      593.10      841.40      1030.2    
  1101.4      1031.7      843.49      594.67      353.56      172.21      69.765      31.327      20.902      14.676    
  10.956      8.8269      7.6996      7.2374      7.0177      6.7906      6.6956      6.8891      7.2289      7.5933    
  6.3328      7.2903      8.9696      11.713      16.260      23.318      35.496      76.847      172.92      326.44    
  511.36      680.07      781.45      782.29      682.04      513.30      327.37      172.61      75.705      34.076    
  21.900      14.928      10.523      7.9747      6.5300      5.7964      5.4609      5.2414      5.1033      5.1784    
  5.4593      5.8209      4.8692      5.5676      6.7404      8.6243      11.665      16.583      23.747      35.496    
  71.085      146.42      256.97      377.37      471.32      507.28      472.48      378.89      257.90      146.34    
  70.200      34.237      22.376      15.205      10.375      7.4971      5.8175      4.8575      4.3625      4.1095    
  3.9623      3.9461      4.1147      4.4293      3.7486      4.2866      5.1256      6.4418      8.4813      11.681    
  16.583      23.318      32.770      57.093      105.32      171.07      235.16      274.94      275.28      235.88    
  171.58      105.24      56.446      31.784      22.137      15.280      10.373      7.2881      5.4291      4.3057    
  3.6595      3.3204      3.1460      3.0812      3.1544      3.3826      2.9110      3.3337      3.9693      4.9270    
  6.3543      8.4813      11.665      16.260      22.263      29.289      42.255      66.337      97.041      123.12    
  133.42      123.29      97.187      66.241      41.840      28.590      21.308      15.111      10.438      7.3006    
  5.3087      4.0547      3.2789      2.8274      2.5861      2.4819      2.4963      2.6377      2.3180      2.6405    
  3.1401      3.8734      4.9270      6.4418      8.6243      11.713      15.869      20.999      26.627      32.764    
  41.719      52.052      59.121      59.144      52.099      41.724      32.628      26.231      20.274      14.878    
  10.605      7.5382      5.4556      4.0718      3.1662      2.5937      2.2575      2.0924      2.0572      2.1317    
  1.9248      2.1632      2.5547      3.1401      3.9693      5.1256      6.7404      8.9696      11.937      15.668    
  20.019      24.637      28.997      32.604      35.329      36.443      35.422      32.742      29.064      24.479    
  19.543      14.911      11.038      8.0652      5.9006      4.3679      3.3068      2.5962      2.1466      1.8933    
  1.7902      1.8051      1.6858      1.8582      2.1632      2.6405      3.3337      4.2866      5.5676      7.2903    
  9.5837      12.512      16.004      19.837      23.679      27.138      29.805      31.312      31.408      30.030    
  27.339      23.702      19.611      15.569      11.969      9.0088      6.7073      4.9804      3.7213      2.8361    
  2.2448      1.8782      1.6835      1.6262      1.5261      1.6242      1.8373      2.1890      2.7193      3.4648    
  4.4528      5.7277      7.3745      9.4837      12.068      15.003      18.049      20.923      23.334      25.002    
  25.675      25.204      23.626      21.166      18.174      15.020      12.016      9.3709      7.1790      5.4414    
  4.1092      3.1228      2.4253      1.9611      1.6788      1.5408      1.5408      1.5732      1.7302      2.0167    
  2.4591      3.1067      4.0086      5.1931      6.6808      8.5150      10.750      13.382      16.278      19.180    
  21.774      23.761      24.899      25.025      24.098      22.230      19.678      16.763      13.796      11.019    
  8.5891      6.5804      4.9931      3.7845      2.8980      2.2783      1.8729      1.6366      1.6788      1.6308    
  1.7228      1.9534      2.3303      2.8901      3.6995      4.8214      6.2800      8.0695      10.196      12.680    
  15.495      18.485      21.364      23.789      25.459      26.162      25.802      24.415      22.178      19.377    
  16.332      13.325      10.568      8.1937      6.2581      4.7503      3.6182      2.7986      2.2335      1.8729    
  1.9611      1.8158      1.8281      1.9973      2.3272      2.8287      3.5421      4.5461      5.9282      7.7331    
  9.9440      12.512      15.383      18.472      21.602      24.481      26.755      28.111      28.355      27.447    
  25.508      22.792      19.626      16.337      13.192      10.379      8.0043      6.1024      4.6452      3.5677    
  2.7986      2.2783      2.4253      2.1596      2.0762      2.1686      2.4431      2.9066      3.5706      4.4816    
  5.7386      7.4555      9.6872      12.391      15.462      18.780      22.206      25.520      28.396      30.455    
  31.387      31.045      29.474      26.891      23.627      20.049      16.489      13.192      10.313      7.9308    
  6.0568      4.6452      3.6182      2.8980      3.1228      2.7091      2.5097      2.5062      2.6976      3.1000    
  3.7368      4.6352      5.8436      7.4497      9.5579      12.228      15.425      19.023      22.836      26.626    
  30.090      32.855      34.545      34.892      33.827      31.496      28.219      24.401      20.434      16.635    
  13.217      10.298      7.9308      6.1024      4.7503      3.7845      4.1092      3.5239      3.1871      3.0704    
  3.1588      3.4619      4.0203      4.8862      6.0981      7.6881      9.7159      12.273      15.428      19.147    
  23.263      27.508      31.546      34.999      37.466      38.599      38.202      36.311      33.187      29.244    
  24.935      20.656      16.693      13.217      10.313      8.0043      6.2581      4.9931      5.4414      4.6708    
  4.1887      3.9506      3.9327      4.1254      4.5495      5.2695      6.3734      7.9303      9.9739      12.529    
  15.634      19.318      23.524      28.052      32.564      36.637      39.834      41.762      42.144      40.893    
  38.158      34.300      29.797      25.125      20.656      16.635      13.192      10.379      8.1937      6.5804    
  7.1790      6.2273      5.6217      5.2816      5.1650      5.2510      5.5338      6.0503      6.9057      8.2454    
  10.176      12.715      15.827      19.484      23.672      28.298      33.095      37.637      41.439      44.069    
  45.220      44.740      42.634      39.137      34.686      29.797      24.935      20.434      16.489      13.192    
  10.568      8.5891      9.3709      8.2855      7.6297      7.2686      7.1033      7.0874      7.2183      7.5274    
  8.0959      9.0687      10.619      12.865      15.819      19.416      23.579      28.214      33.122      37.936    
  42.173      45.350      47.140      47.406      46.088      43.232      39.137      34.300      29.244      24.401    
  20.049      16.337      13.325      11.019      12.016      10.923      10.376      10.180      10.136      10.108    
  10.068      10.084      10.274      10.777      11.769      13.435      15.902      19.177      23.157      27.687    
  32.564      37.474      41.973      45.563      47.852      48.720      48.143      46.088      42.634      38.158    
  33.187      28.219      23.627      19.626      16.332      13.796      15.020      14.130      13.954      14.234    
  14.647      14.894      14.818      14.458      14.019      13.770      13.972      14.846      16.553      19.158    
  22.609      26.760      31.395      36.212      40.794      44.658      47.357      48.705      48.720      47.406    
  44.740      40.893      36.311      31.496      26.891      22.792      19.377      16.763      18.174      17.736    
  18.243      19.368      20.645      21.599      21.877      21.366      20.242      18.912      17.864      17.509    
  18.093      19.694      22.272      25.701      29.787      34.243      38.671      42.603      45.598      47.357    
  47.852      47.140      45.220      42.144      38.202      33.827      29.474      25.508      22.178      19.678    
  21.166      21.395      22.832      25.063      27.623      30.669      32.940      32.786      30.230      26.977    
  24.358      22.254      21.075      21.131      22.439      24.828      28.054      31.832      35.806      39.544    
  42.603      44.658      45.563      45.350      44.069      41.762      38.599      34.892      31.045      27.447    
  24.415      22.230      23.626      24.655      27.109      30.981      39.590      53.074      65.800      70.904    
  65.396      52.347      38.679      30.058      26.361      24.248      23.633      24.494      26.521      29.331    
  32.555      35.806      38.671      40.794      41.973      42.173      41.439      39.834      37.466      34.545    
  31.387      28.355      25.802      24.098      25.204      27.068      30.515      39.115      61.795      98.055    
  136.48      161.11      160.74      135.50      96.767      60.485      37.989      29.707      26.688      25.314    
  25.597      27.110      29.331      31.832      34.243      36.212      37.474      37.936      37.637      36.637    
  34.999      32.855      30.455      28.111      26.162      25.025      25.675      28.302      32.908      48.453    
  90.279      159.84      241.00      306.53      331.29      305.33      239.09      157.83      88.581      47.205    
  32.126      28.008      25.901      25.597      26.521      28.054      29.787      31.395      32.564      33.122    
  33.095      32.564      31.546      30.090      28.396      26.755      25.459      24.899      25.002      28.210    
  33.807      54.842      114.48      220.06      354.90      482.02      559.11      558.27      479.87      352.22    
  217.57      112.53      53.510      33.058      28.008      25.314      24.494      24.828      25.701      26.760    
  27.687      28.214      28.298      28.052      27.508      26.626      25.520      24.481      23.789      23.761    
  23.334      26.850      32.814      54.828      123.92      257.11      443.27      641.65      794.68      851.85    
  793.18      639.12      440.41      254.51      121.92      53.510      32.126      26.688      23.633      22.439    
  22.272      22.609      23.157      23.579      23.672      23.524      23.263      22.836      22.206      21.602    
  21.364      21.774      20.923      24.451      30.368      48.423      114.39      256.90      476.28      736.67    
  973.07      1114.3      1113.8      971.54      734.40      473.71      254.51      112.53      47.205      29.707    
  24.248      21.131      19.694      19.158      19.177      19.416      19.484      19.318      19.147      19.023    
  18.780      18.472      18.485      19.180      18.049      21.348      27.014      39.110      90.242      219.63    
  442.52      736.15      1039.4      1269.8      1356.0      1269.3      1038.2      734.40      440.41      217.57    
  88.581      37.989      26.361      21.075      18.093      16.553      15.902      15.819      15.827      15.634    
  15.428      15.425      15.462      15.383      15.495      16.278      15.003      17.908      22.930      31.082    
  61.954      159.63      354.00      640.48      972.30      1269.6      1446.3      1446.2      1269.3      971.54    
  639.12      352.22      157.83      60.485      30.058      22.254      17.509      14.846      13.435      12.865    
  12.715      12.529      12.273      12.228      12.391      12.512      12.680      13.382      12.068      14.483    
  18.623      25.382      39.989      98.315      240.62      481.02      793.72      1113.8      1355.8      1446.3    
  1356.0      1113.8      793.18      479.87      239.09      96.767      38.679      24.358      17.864      13.972    
  11.769      10.619      10.176      9.9739      9.7159      9.5579      9.6872      9.9440      10.196      10.750    
  9.4837      11.366      14.583      19.972      28.238      53.751      136.87      306.34      558.65      851.59    
  1113.8      1269.6      1269.8      1114.3      851.85      558.27      305.33      135.50      52.347      26.977    
  18.912      13.770      10.777      9.0687      8.2454      7.9303      7.6881      7.4497      7.4555      7.7331    
  8.0695      8.5150      7.3745      8.7530      11.130      15.071      21.468      31.577      66.756      161.80    
  331.67      558.65      793.72      972.30      1039.4      973.07      794.68      559.11      331.29      160.74    
  65.396      30.230      20.242      14.019      10.274      8.0959      6.9057      6.3734      6.0981      5.8436    
  5.7386      5.9282      6.2800      6.6808      5.7277      6.7032      8.3868      11.119      15.631      22.645    
  34.124      72.123      161.80      306.34      481.02      640.48      736.15      736.67      641.65      482.02    
  306.53      161.11      70.904      32.786      21.366      14.458      10.084      7.5274      6.0503      5.2695    
  4.8862      4.6352      4.4816      4.5461      4.8214      5.1931      4.4528      5.1566      6.3246      8.1886    
  11.186      16.028      23.110      34.124      66.756      136.87      240.62      354.00      442.52      476.28    
  443.27      354.90      241.00      136.48      65.800      32.940      21.877      14.818      10.068      7.2183    
  5.5338      4.5495      4.0203      3.7368      3.5706      3.5421      3.6995      4.0086      3.4648      3.9977    
  4.8258      6.1174      8.1126      11.237      16.028      22.645      31.577      53.751      98.315      159.63    
  219.63      256.90      257.11      220.06      159.84      98.055      53.074      30.669      21.599      14.894    
  10.108      7.0874      5.2510      4.1254      3.4619      3.1000      2.9066      2.8287      2.8901      3.1067    
  2.7193      3.1289      3.7474      4.6769      6.0580      8.1126      11.186      15.631      21.468      28.238    
  39.989      61.954      90.242      114.39      123.92      114.48      90.279      61.795      39.590      27.623    
  20.645      14.647      10.136      7.1033      5.1650      3.9327      3.1588      2.6976      2.4431      2.3272    
  2.3303      2.4591      2.1890      2.4940      2.9709      3.6720      4.6769      6.1174      8.1886      11.119    
  15.071      19.972      25.382      31.082      39.110      48.423      54.828      54.842      48.453      39.115    
  30.981      25.063      19.368      14.234      10.180      7.2686      5.2816      3.9506      3.0704      2.5062    
  2.1686      1.9973      1.9534      2.0167      1.8373      2.0571      2.4223      2.9709      3.7474      4.8258    
  6.3246      8.3868      11.130      14.583      18.623      22.930      27.014      30.368      32.814      33.807    
  32.908      30.515      27.109      22.832      18.243      13.954      10.376      7.6297      5.6217      4.1887    
  3.1871      2.5097      2.0762      1.8281      1.7228      1.7302      1.6242      1.7794      2.0571      2.4940    
  3.1289      3.9977      5.1566      6.7032      8.7530      11.366      14.483      17.908      21.348      24.451    
  26.850      28.210      28.302      27.068      24.655      21.395      17.736      14.130      10.923      8.2855    
  6.2273      4.6708      3.5239      2.7091      2.1596      1.8158      1.6308      1.5732      1.4614      1.5456    
  1.7313      2.0390      2.5036      3.1557      4.0149      5.1124      6.5124      8.2865      10.445      12.888    
  15.421      17.810      19.818      21.208      21.769      21.377      20.064      18.020      15.538      12.920    
  10.422      8.2125      6.3673      4.8891      3.7415      2.8810      2.2660      1.8535      1.6011      1.4767    
  1.4767      1.5034      1.6376      1.8833      2.2622      2.8140      3.5768      4.5686      5.7995      7.2989    
  9.1081      11.224      13.544      15.860      17.924      19.502      20.405      20.507      19.773      18.293    
  16.266      13.946      11.574      9.3405      7.3721      5.7292      4.4160      3.4029      2.6499      2.1174    
  1.7663      1.5608      1.6011      1.5597      1.6367      1.8309      2.1480      2.6153      3.2837      4.1993    
  5.3756      6.8012      8.4762      10.417      12.602      14.911      17.123      18.976      20.247      20.783    
  20.513      19.463      17.761      15.618      13.272      10.939      8.7822      6.9085      5.3663      4.1513    
  3.2263      2.5466      2.0718      1.7663      1.8535      1.7317      1.7410      1.8807      2.1531      2.5646    
  3.1425      3.9436      5.0326      6.4405      8.1496      10.116      12.292      14.613      16.946      19.077    
  20.752      21.749      21.932      21.275      19.859      17.858      15.504      13.034      10.649      8.4960    
  6.6635      5.1823      4.0340      3.1721      2.5466      2.1174      2.2660      2.0480      1.9785      2.0526    
  2.2748      2.6482      3.1768      3.8896      4.8588      6.1710      7.8669      9.9074      12.200      14.645    
  17.139      19.528      21.586      23.054      23.720      23.486      22.382      20.549      18.205      15.603    
  12.982      10.527      8.3642      6.5593      5.1264      4.0340      3.2263      2.6499      2.8810      2.5496    
  2.3878      2.3832      2.5345      2.8521      3.3503      4.0433      4.9607      6.1646      7.7340      9.7131    
  12.067      14.687      17.423      20.105      22.527      24.447      25.619      25.866      25.142      23.541    
  21.266      18.579      15.746      12.994      10.487      8.3266      6.5593      5.1823      4.1513      3.4029    
  3.7415      3.2867      3.0205      2.9260      2.9927      3.2259      3.6536      4.3113      5.2208      6.3976    
  7.8815      9.7414      12.026      14.697      17.618      20.584      23.366      25.721      27.396      28.167    
  27.908      26.639      24.529      21.837      18.852      15.839      13.005      10.487      8.3642      6.6635    
  5.3663      4.4160      4.8891      4.3127      3.9454      3.7597      3.7417      3.8835      4.1972      4.7278    
  5.5381      6.6751      8.1571      9.9953      12.212      14.818      17.759      20.884      23.958      26.708    
  28.854      30.147      30.405      29.577      27.760      25.185      22.149      18.951      15.839      12.994    
  10.527      8.4960      6.9085      5.7292      6.3673      5.6880      5.2517      5.0017      4.9113      4.9671    
  5.1618      5.5182      6.1141      7.0604      8.4365      10.248      12.451      15.008      17.897      21.046    
  24.277      27.316      29.852      31.609      32.381      32.060      30.664      28.357      25.414      22.149    
  18.852      15.746      12.982      10.649      8.7822      7.3721      8.2125      7.4857      7.0593      6.8294    
  6.7212      6.7020      6.7703      6.9478      7.2951      7.9248      8.9726      10.527      12.587      15.082    
  17.931      21.053      24.319      27.504      30.308      32.435      33.656      33.834      32.935      31.040    
  28.357      25.185      21.837      18.579      15.603      13.034      10.939      9.3405      10.422      9.7707    
  9.5088      9.4789      9.5173      9.5134      9.4466      9.3733      9.3883      9.6063      10.168      11.223    
  12.868      15.092      17.789      20.818      24.029      27.235      30.176      32.558      34.133      34.745    
  34.337      32.935      30.664      27.760      24.529      21.266      18.205      15.504      13.272      11.574    
  12.920      12.538      12.689      13.154      13.656      13.939      13.869      13.479      12.942      12.491    
  12.351      12.711      13.701      15.364      17.633      20.367      23.387      26.492      29.440      31.952    
  33.770      34.724      34.745      33.834      32.060      29.577      26.639      23.541      20.549      17.858    
  15.618      13.946      15.538      15.650      16.509      17.829      19.196      20.184      20.479      19.977    
  18.832      17.407      16.139      15.395      15.390      16.188      17.734      19.901      22.509      25.340    