Band structure                          
   1.00000000000000     
     3.822700    0.000000    0.000000
    -1.911350    3.310555    0.000000
     0.000000    0.000000    6.260700
   Zn   S 
     2     2
Direct
  0.333300  0.666700  0.000000
  0.666700  0.333300  0.500000
  0.333300  0.666700  0.374800
  0.666700  0.333300  0.874800
 
   32   32   56
 0.15745026617E+01 0.16857579007E+01 0.19248246154E+01 0.23180452605E+01 0.29110406743E+01
 0.37485548636E+01 0.48692292054E+01 0.63328255113E+01 0.82409094676E+01 0.10695834048E+02
 0.13708564981E+02 0.17135580477E+02 0.20701268875E+02 0.24070943058E+02 0.26901248439E+02
 0.28855508783E+02 0.29638651183E+02 0.29082278379E+02 0.27229853072E+02 0.24346553896E+02
 0.20839751174E+02 0.17143835566E+02 0.13626433718E+02 0.10535317109E+02 0.79843271732E+01
 0.59766850931E+01 0.44537848659E+01 0.33399881533E+01 0.25615174967E+01 0.20480797968E+01
 0.17380298085E+01 0.15881495150E+01 0.15881495150E+01 0.16261709519E+01 0.18051068676E+01
 0.21316747479E+01 0.26376985994E+01 0.33826107995E+01 0.44292847720E+01 0.58209262116E+01
 0.75932576680E+01 0.98027869631E+01 0.12511223101E+02 0.15708189202E+02 0.19234952963E+02
 0.22783798132E+02 0.25972175573E+02 0.28426663804E+02 0.29835514216E+02 0.29990092455E+02
 0.28839781788E+02 0.26532232010E+02 0.23388746902E+02 0.19813125181E+02 0.16188594360E+02
 0.12813092770E+02 0.98773261027E+01 0.74666234258E+01 0.55790246135E+01 0.41587220458E+01
 0.31310071674E+01 0.24214452248E+01 0.19614620586E+01 0.16951523423E+01 0.17380298085E+01
 0.16835208467E+01 0.17902178889E+01 0.20571687778E+01 0.24963345049E+01 0.31544003679E+01
 0.41146585635E+01 0.54592666138E+01 0.72289261354E+01 0.94304923699E+01 0.12078495211E+02
 0.15197079938E+02 0.18746353564E+02 0.22533993220E+02 0.26204252577E+02 0.29321513645E+02
 0.31482230483E+02 0.32393995870E+02 0.31921270367E+02 0.30117601596E+02 0.27229255002E+02
 0.23640019692E+02 0.19769512411E+02 0.15980606065E+02 0.12535642426E+02 0.95920736203E+01
 0.72111123329E+01 0.53740030057E+01 0.40119297756E+01 0.30402057142E+01 0.23791823496E+01
 0.19614620586E+01 0.20480797968E+01 0.18781948743E+01 0.18932970273E+01 0.20924004172E+01
 0.24819373328E+01 0.30811610232E+01 0.39460732303E+01 0.51783832923E+01 0.68890795318E+01
 0.91407193450E+01 0.11926886123E+02 0.15203279271E+02 0.18912964663E+02 0.22948519247E+02
 0.27075307509E+02 0.30901661165E+02 0.33946493076E+02 0.35769263676E+02 0.36089211673E+02
 0.34851241255E+02 0.32234206494E+02 0.28604697277E+02 0.24422830340E+02 0.20131452197E+02
 0.16077404466E+02 0.12488378560E+02 0.94852304310E+01 0.70991792261E+01 0.52888766871E+01
 0.39681080455E+01 0.30402057142E+01 0.24214452248E+01 0.25615174967E+01 0.22448100803E+01
 0.21465864032E+01 0.22574974710E+01 0.25860675919E+01 0.31459585157E+01 0.39622712794E+01
 0.51032574344E+01 0.66955619474E+01 0.88793390782E+01 0.11728028754E+02 0.15209941866E+02
 0.19222407055E+02 0.23635024040E+02 0.28264591680E+02 0.32798096366E+02 0.36763932541E+02
 0.39618738296E+02 0.40910229400E+02 0.40418652059E+02 0.38213803418E+02 0.34624885964E+02
 0.30146651729E+02 0.25311774903E+02 0.20574005455E+02 0.16248238698E+02 0.12515582339E+02
 0.94556440940E+01 0.70685758546E+01 0.52888766871E+01 0.40119297757E+01 0.31310071674E+01
 0.33399881533E+01 0.28361191636E+01 0.25962067923E+01 0.25936675390E+01 0.28273869252E+01
 0.33204489574E+01 0.41094999514E+01 0.52414274101E+01 0.67906348199E+01 0.88733403869E+01
 0.11620991403E+02 0.15116182990E+02 0.19340633746E+02 0.24168785225E+02 0.29381312057E+02
 0.34654653123E+02 0.39535349424E+02 0.43461116564E+02 0.45869495929E+02 0.46359519708E+02
 0.44823877756E+02 0.41487568001E+02 0.36841033923E+02 0.31499161109E+02 0.26043325584E+02
 0.20910282979E+02 0.16364297441E+02 0.12533506576E+02 0.94556440940E+01 0.70991792261E+01
 0.53740030057E+01 0.41587220458E+01 0.44537848659E+01 0.37212625012E+01 0.33068263943E+01
 0.31662063819E+01 0.32789253736E+01 0.36594576456E+01 0.43625191375E+01 0.54608558279E+01
 0.70176719347E+01 0.90924336446E+01 0.11773640177E+02 0.15183765072E+02 0.19421166319E+02
 0.24471498076E+02 0.30151803745E+02 0.36111258001E+02 0.41863169186E+02 0.46823874427E+02
 0.50364198762E+02 0.51988828909E+02 0.51434812002E+02 0.48715856164E+02 0.44193996097E+02
 0.38524719059E+02 0.32411931486E+02 0.26450130435E+02 0.21033626254E+02 0.16364297441E+02
 0.12515582339E+02 0.94852304310E+01 0.72111123329E+01 0.55790246136E+01 0.59766850931E+01
 0.49804205792E+01 0.43679408806E+01 0.40718065441E+01 0.40546681382E+01 0.43057010579E+01
 0.48575207708E+01 0.57964210245E+01 0.72373579690E+01 0.92787010042E+01 0.11983883337E+02
 0.15408434063E+02 0.19628289429E+02 0.24706101153E+02 0.30589722288E+02 0.37013506807E+02
 0.43483598111E+02 0.49316169823E+02 0.53782678513E+02 0.56427743405E+02 0.56996475191E+02
 0.55351202629E+02 0.51539024132E+02 0.45961123536E+02 0.39426950875E+02 0.32732370742E+02
 0.26450130435E+02 0.20910282979E+02 0.16248238698E+02 0.12488378560E+02 0.95920736203E+01
 0.74666234258E+01 0.79843271732E+01 0.67072972505E+01 0.59006415046E+01 0.54556450715E+01
 0.53086777085E+01 0.54291404973E+01 0.58174783709E+01 0.65299636407E+01 0.76996417506E+01
 0.95039627792E+01 0.12084040264E+02 0.15492446801E+02 0.19728425115E+02 0.24806333508E+02
 0.30735334780E+02 0.37378830521E+02 0.44321258618E+02 0.50795315242E+02 0.55929613517E+02
 0.59296679973E+02 0.60782600200E+02 0.60301019468E+02 0.57704156336E+02 0.52982527252E+02
 0.46571355651E+02 0.39426950875E+02 0.32411931486E+02 0.26043325584E+02 0.20574005455E+02
 0.16077404466E+02 0.12535642426E+02 0.98773261027E+01 0.10535317109E+02 0.90088140837E+01
 0.80652340287E+01 0.75381755704E+01 0.73005790544E+01 0.72880765612E+01 0.74970500878E+01
 0.79746903916E+01 0.88268719670E+01 0.10228962986E+02 0.12390502839E+02 0.15470821046E+02
 0.19522969923E+02 0.24525723191E+02 0.30437741277E+02 0.37148781030E+02 0.44331756014E+02
 0.51265014494E+02 0.56921149489E+02 0.60776698111E+02 0.62838183410E+02 0.63234595313E+02
 0.61870831721E+02 0.58472182889E+02 0.52982527252E+02 0.45961123536E+02 0.38524719059E+02
 0.31499161109E+02 0.25311774903E+02 0.20131452197E+02 0.15980606065E+02 0.12813092770E+02
 0.13626433718E+02 0.11969124672E+02 0.11037980926E+02 0.10604799296E+02 0.10437524338E+02
 0.10373316542E+02 0.10375108970E+02 0.10522573929E+02 0.10956324348E+02 0.11845451952E+02
 0.13395307740E+02 0.15831912499E+02 0.19328285640E+02 0.23938869870E+02 0.29607335319E+02
 0.36189741922E+02 0.43391705516E+02 0.50619872476E+02 0.56789247020E+02 0.61126939445E+02
 0.63583271504E+02 0.64487175145E+02 0.64001435972E+02 0.61870831721E+02 0.57704156336E+02
 0.51539024132E+02 0.44193996097E+02 0.36841033923E+02 0.30146651729E+02 0.24422830340E+02
 0.19769512411E+02 0.16188594360E+02 0.17143835566E+02 0.15569483184E+02 0.14911352474E+02
 0.14877721443E+02 0.15110643758E+02 0.15280082707E+02 0.15205049236E+02 0.14927566102E+02
 0.14675887056E+02 0.14752943424E+02 0.15449145127E+02 0.17016970868E+02 0.19657021462E+02
 0.23481579889E+02 0.28489700872E+02 0.34568863839E+02 0.41463991781E+02 0.48689303360E+02
 0.55313200326E+02 0.60266131855E+02 0.63214980639E+02 0.64481763436E+02 0.64487175145E+02
 0.63234595313E+02 0.60301019468E+02 0.55351202629E+02 0.48715856164E+02 0.41487568001E+02
 0.34624885964E+02 0.28604697277E+02 0.23640019692E+02 0.19813125181E+02 0.20839751174E+02
 0.19610528915E+02 0.19543013099E+02 0.20274094268E+02 0.21308140908E+02 0.22136527060E+02
 0.22375794719E+02 0.21899860937E+02 0.20901555678E+02 0.19823765175E+02 0.19189761663E+02
 0.19438582481E+02 0.20845581359E+02 0.23527256937E+02 0.27484677904E+02 0.32635808934E+02
 0.38789955807E+02 0.45557450892E+02 0.52259294346E+02 0.57806722364E+02 0.61444669709E+02
 0.63214980639E+02 0.63583271504E+02 0.62838183410E+02 0.60782600200E+02 0.56996475191E+02
 0.51434812002E+02 0.44823877756E+02 0.38213803418E+02 0.32234206494E+02 0.27229255002E+02
 0.23388746902E+02 0.24346553896E+02 0.23701961363E+02 0.24479377821E+02 0.26231128156E+02
 0.28589645658E+02 0.31783649079E+02 0.34236544028E+02 0.34075872416E+02 0.31327078463E+02
 0.27925586458E+02 0.25520803329E+02 0.23924824053E+02 0.23453171534E+02 0.24442806381E+02
 0.26940290677E+02 0.30806480665E+02 0.35819836847E+02 0.41661431518E+02 0.47816837846E+02
 0.53519109648E+02 0.57806722364E+02 0.60266131855E+02 0.61126939445E+02 0.60776698111E+02
 0.59296679973E+02 0.56427743405E+02 0.51988828909E+02 0.46359519708E+02 0.40418652059E+02
 0.34851241255E+02 0.30117601596E+02 0.26532232010E+02 0.27229853072E+02 0.27339480394E+02
 0.29063906476E+02 0.32627603122E+02 0.41839867896E+02 0.56445845212E+02 0.70200202980E+02
 0.75705161511E+02 0.69765192933E+02 0.55668835028E+02 0.40879211946E+02 0.31678700003E+02
 0.28335748005E+02 0.27022000129E+02 0.27413108090E+02 0.29510068237E+02 0.33020472032E+02
 0.37559147628E+02 0.42682685754E+02 0.47816837846E+02 0.52259294346E+02 0.55313200326E+02
 0.56789247020E+02 0.56921149489E+02 0.55929613517E+02 0.53782678513E+02 0.50364198762E+02
 0.45869495929E+02 0.40910229400E+02 0.36089211673E+02 0.31921270367E+02 0.28839781788E+02
 0.29082278379E+02 0.30029780797E+02 0.32742143954E+02 0.41724462088E+02 0.66241052660E+02
 0.10523717060E+03 0.14634007121E+03 0.17260869208E+03 0.17220509817E+03 0.14527054674E+03
 0.10383071591E+03 0.64830340465E+02 0.40544827826E+02 0.31951754475E+02 0.29757054728E+02
 0.29407716017E+02 0.30894579007E+02 0.33795273192E+02 0.37559147628E+02 0.41661431518E+02
 0.45557450892E+02 0.48689303360E+02 0.50619872476E+02 0.51265014494E+02 0.50795315242E+02
 0.49316169823E+02 0.46823874427E+02 0.43461116564E+02 0.39618738296E+02 0.35769263676E+02
 0.32393995870E+02 0.29990092455E+02 0.29638651183E+02 0.31407800757E+02 0.35422463469E+02
 0.52099244660E+02 0.97187149880E+02 0.17157846322E+03 0.25790494735E+03 0.32736896501E+03
 0.35356464923E+03 0.32604559676E+03 0.25579538605E+03 0.16937212228E+03 0.95342856024E+02
 0.50777990100E+02 0.34656678077E+02 0.31234847071E+02 0.30104405428E+02 0.30894579007E+02
 0.33020472032E+02 0.35819836847E+02 0.38789955807E+02 0.41463991781E+02 0.43391705516E+02
 0.44331756014E+02 0.44321258618E+02 0.43483598111E+02 0.41863169186E+02 0.39535349424E+02
 0.36763932541E+02 0.33946493076E+02 0.31482230483E+02 0.29835514216E+02 0.28855508783E+02
 0.31311988748E+02 0.36443111181E+02 0.59144201149E+02 0.12329087924E+03 0.23587631928E+03
 0.37888758789E+03 0.51329554368E+03 0.59466739827E+03 0.59375564857E+03 0.51094439262E+03
 0.37596458415E+03 0.23316999597E+03 0.12119219166E+03 0.57734011467E+02 0.35710130755E+02
 0.31234847071E+02 0.29407716017E+02 0.29510068237E+02 0.30806480665E+02 0.32635808934E+02
 0.34568863839E+02 0.36189741922E+02 0.37148781030E+02 0.37378830521E+02 0.37013506807E+02
 0.36111258001E+02 0.34654653123E+02 0.32798096366E+02 0.30901661165E+02 0.29321513645E+02
 0.28426663804E+02 0.26901248439E+02 0.29804845693E+02 0.35328908775E+02 0.59121072784E+02
 0.13342051749E+03 0.27527709376E+03 0.47248292048E+03 0.68204293251E+03 0.84349296407E+03
 0.90376229818E+03 0.84189962936E+03 0.67936558823E+03 0.46945525403E+03 0.27252252886E+03
 0.13129202740E+03 0.57734011467E+02 0.34656678077E+02 0.29757054728E+02 0.27413108090E+02
 0.26940290677E+02 0.27484677904E+02 0.28489700872E+02 0.29607335319E+02 0.30437741277E+02
 0.30735334780E+02 0.30589722288E+02 0.30151803745E+02 0.29381312057E+02 0.28264591680E+02
 0.27075307509E+02 0.26204252577E+02 0.25972175573E+02 0.24070943058E+02 0.27137997667E+02
 0.32604404123E+02 0.52052268697E+02 0.12311772207E+03 0.27494375294E+03 0.50727843485E+03
 0.78228510626E+03 0.10317036525E+04 0.11807200290E+04 0.11802129055E+04 0.10302426852E+04
 0.78008504313E+03 0.50473166639E+03 0.27252252886E+03 0.12119219166E+03 0.50777990100E+02
 0.31951754475E+02 0.27022000129E+02 0.24442806381E+02 0.23527256937E+02 0.23481579889E+02
 0.23938869870E+02 0.24525723191E+02 0.24806333508E+02 0.24706101153E+02 0.24471498076E+02
 0.24168785225E+02 0.23635024040E+02 0.22948519247E+02 0.22533993220E+02 0.22783798132E+02
 0.20701268875E+02 0.23679364645E+02 0.28997271557E+02 0.41718867511E+02 0.97040861618E+02
 0.23516029567E+03 0.47132260591E+03 0.78145215444E+03 0.11013989921E+04 0.13446221682E+04
 0.14356496452E+04 0.13443441331E+04 0.11006509045E+04 0.78008504313E+03 0.46945525403E+03
 0.23316999597E+03 0.95342856024E+02 0.40544827826E+02 0.28335748005E+02 0.23453171534E+02
 0.20845581359E+02 0.19657021462E+02 0.19328285640E+02 0.19522969923E+02 0.19728425115E+02
 0.19628289429E+02 0.19421166319E+02 0.19340633746E+02 0.19222407055E+02 0.18912964663E+02
 0.18746353564E+02 0.19234952963E+02 0.17135580477E+02 0.19837146416E+02 0.24636705123E+02
 0.32764007704E+02 0.66336978127E+02 0.17106591925E+03 0.37736925885E+03 0.68007014993E+03
 0.10302166565E+04 0.13439759710E+04 0.15306747815E+04 0.15308745519E+04 0.13443441331E+04
 0.10302426852E+04 0.67936558823E+03 0.37596458415E+03 0.16937212228E+03 0.64830340465E+02
 0.31678700003E+02 0.23924824053E+02 0.19438582481E+02 0.17016970868E+02 0.15831912499E+02
 0.15470821046E+02 0.15492446801E+02 0.15408434063E+02 0.15183765072E+02 0.15116182990E+02
 0.15209941866E+02 0.15203279271E+02 0.15197079938E+02 0.15708189202E+02 0.13708564981E+02
 0.16004010136E+02 0.20018627036E+02 0.26627459541E+02 0.42254603926E+02 0.10531627965E+03
 0.25697385193E+03 0.51135676782E+03 0.84140263924E+03 0.11791930537E+04 0.14348455554E+04
 0.15306747815E+04 0.14356496452E+04 0.11802129055E+04 0.84189962936E+03 0.51094439262E+03
 0.25579538605E+03 0.10383071591E+03 0.40879211946E+02 0.25520803329E+02 0.19189761663E+02
 0.15449145127E+02 0.13395307740E+02 0.12390502839E+02 0.12084040264E+02 0.11983883337E+02
 0.11773640177E+02 0.11620991403E+02 0.11728028754E+02 0.11926886123E+02 0.12078495211E+02
 0.12511223101E+02 0.10695834048E+02 0.12512295549E+02 0.15668093484E+02 0.20999325871E+02
 0.29288941571E+02 0.57093426440E+02 0.14641815156E+03 0.32644275508E+03 0.59310244661E+03
 0.90227819923E+03 0.11791930537E+04 0.13439759710E+04 0.13446221682E+04 0.11807200290E+04
 0.90376229818E+03 0.59375564857E+03 0.32604559676E+03 0.14527054674E+03 0.55668835028E+02
 0.27925586458E+02 0.19823765175E+02 0.14752943424E+02 0.11845451952E+02 0.10228962986E+02
 0.95039627792E+01 0.92787010042E+01 0.90924336446E+01 0.88733403869E+01 0.88793390782E+01
 0.91407193450E+01 0.94304923699E+01 0.98027869631E+01 0.82409094676E+01 0.95836838823E+01
 0.11937415651E+02 0.15869194062E+02 0.22263186712E+02 0.32769846117E+02 0.71085107386E+02
 0.17292400727E+03 0.35317747340E+03 0.59310244661E+03 0.84140263924E+03 0.10302166565E+04
 0.11013989921E+04 0.10317036525E+04 0.84349296407E+03 0.59466739827E+03 0.35356464923E+03
 0.17220509817E+03 0.69765192933E+02 0.31327078463E+02 0.20901555678E+02 0.14675887056E+02
 0.10956324348E+02 0.88268719670E+01 0.76996417506E+01 0.72373579690E+01 0.70176719347E+01
 0.67906348199E+01 0.66955619474E+01 0.68890795318E+01 0.72289261354E+01 0.75932576680E+01
 0.63328255113E+01 0.72902532909E+01 0.89696493253E+01 0.11713407125E+02 0.16259833424E+02
 0.23317869924E+02 0.35496371677E+02 0.76847244741E+02 0.17292400727E+03 0.32644275508E+03
 0.51135676782E+03 0.68007014993E+03 0.78145215444E+03 0.78228510626E+03 0.68204293251E+03
 0.51329554368E+03 0.32736896501E+03 0.17260869208E+03 0.75705161511E+02 0.34075872416E+02
 0.21899860937E+02 0.14927566102E+02 0.10522573929E+02 0.79746903916E+01 0.65299636407E+01
 0.57964210245E+01 0.54608558279E+01 0.52414274101E+01 0.51032574344E+01 0.51783832923E+01
 0.54592666138E+01 0.58209262116E+01 0.48692292054E+01 0.55675529402E+01 0.67404108180E+01
 0.86243458887E+01 0.11664971912E+02 0.16582683534E+02 0.23746739254E+02 0.35496371677E+02
 0.71085107386E+02 0.14641815156E+03 0.25697385193E+03 0.37736925885E+03 0.47132260591E+03
 0.50727843485E+03 0.47248292048E+03 0.37888758789E+03 0.25790494735E+03 0.14634007121E+03
 0.70200202980E+02 0.34236544028E+02 0.22375794719E+02 0.15205049236E+02 0.10375108970E+02
 0.74970500878E+01 0.58174783709E+01 0.48575207708E+01 0.43625191375E+01 0.41094999514E+01
 0.39622712794E+01 0.39460732303E+01 0.41146585635E+01 0.44292847720E+01 0.37485548636E+01
 0.42866091753E+01 0.51255589974E+01 0.64417739668E+01 0.84812581967E+01 0.11680519273E+02
 0.16582683534E+02 0.23317869924E+02 0.32769846117E+02 0.57093426440E+02 0.10531627965E+03
 0.17106591925E+03 0.23516029567E+03 0.27494375294E+03 0.27527709376E+03 0.23587631928E+03
 0.17157846322E+03 0.10523717060E+03 0.56445845212E+02 0.31783649079E+02 0.22136527060E+02
 0.15280082707E+02 0.10373316542E+02 0.72880765612E+01 0.54291404973E+01 0.43057010579E+01
 0.36594576456E+01 0.33204489574E+01 0.31459585157E+01 0.30811610232E+01 0.31544003679E+01
 0.33826107995E+01 0.29110406743E+01 0.33337299811E+01 0.39692723582E+01 0.49270496020E+01
 0.63542901913E+01 0.84812581967E+01 0.11664971912E+02 0.16259833424E+02 0.22263186712E+02
 0.29288941571E+02 0.42254603926E+02 0.66336978127E+02 0.97040861618E+02 0.12311772207E+03
 0.13342051749E+03 0.12329087924E+03 0.97187149880E+02 0.66241052660E+02 0.41839867896E+02
 0.28589645658E+02 0.21308140908E+02 0.15110643758E+02 0.10437524338E+02 0.73005790544E+01
 0.53086777085E+01 0.40546681382E+01 0.32789253736E+01 0.28273869252E+01 0.25860675919E+01
 0.24819373328E+01 0.24963345049E+01 0.26376985994E+01 0.23180452605E+01 0.26405193956E+01
 0.31401104010E+01 0.38734424767E+01 0.49270496020E+01 0.64417739668E+01 0.86243458887E+01
 0.11713407125E+02 0.15869194062E+02 0.20999325871E+02 0.26627459541E+02 0.32764007704E+02
 0.41718867511E+02 0.52052268697E+02 0.59121072784E+02 0.59144201149E+02 0.52099244660E+02
 0.41724462088E+02 0.32627603122E+02 0.26231128156E+02 0.20274094268E+02 0.14877721443E+02
 0.10604799296E+02 0.75381755704E+01 0.54556450715E+01 0.40718065441E+01 0.31662063819E+01
 0.25936675390E+01 0.22574974710E+01 0.20924004172E+01 0.20571687778E+01 0.21316747479E+01
 0.19248246154E+01 0.21631762290E+01 0.25546920097E+01 0.31401104010E+01 0.39692723582E+01
 0.51255589974E+01 0.67404108180E+01 0.89696493253E+01 0.11937415651E+02 0.15668093484E+02
 0.20018627036E+02 0.24636705123E+02 0.28997271557E+02 0.32604404123E+02 0.35328908775E+02
 0.36443111181E+02 0.35422463469E+02 0.32742143954E+02 0.29063906476E+02 0.24479377821E+02
 0.19543013099E+02 0.14911352474E+02 0.11037980926E+02 0.80652340286E+01 0.59006415046E+01
 0.43679408806E+01 0.33068263943E+01 0.25962067923E+01 0.21465864032E+01 0.18932970273E+01
 0.17902178889E+01 0.18051068676E+01 0.16857579007E+01 0.18581915846E+01 0.21631762290E+01
 0.26405193956E+01 0.33337299811E+01 0.42866091753E+01 0.55675529402E+01 0.72902532909E+01
 0.95836838823E+01 0.12512295549E+02 0.16004010136E+02 0.19837146416E+02 0.23679364645E+02
 0.27137997667E+02 0.29804845693E+02 0.31311988748E+02 0.31407800757E+02 0.30029780797E+02
 0.27339480394E+02 0.23701961363E+02 0.19610528915E+02 0.15569483184E+02 0.11969124672E+02
 0.90088140837E+01 0.67072972505E+01 0.49804205792E+01 0.37212625012E+01 0.28361191636E+01
 0.22448100803E+01 0.18781948743E+01 0.16835208467E+01 0.16261709519E+01 0.15260804919E+01
 0.16241703520E+01 0.18373138081E+01 0.21889564738E+01 0.27192548364E+01 0.34647949375E+01
 0.44527528444E+01 0.57276855871E+01 0.73744750990E+01 0.94837320002E+01 0.12067772838E+02
 0.15002550763E+02 0.18049297831E+02 0.20922583362E+02 0.23334417318E+02 0.25002315267E+02
 0.25674555235E+02 0.25204056885E+02 0.23625579503E+02 0.21165927220E+02 0.18173979743E+02
 0.15020114462E+02 0.12016139599E+02 0.93709392070E+01 0.71790141010E+01 0.54413947044E+01
 0.41092289499E+01 0.31227765926E+01 0.24253101340E+01 0.19611207676E+01 0.16787626111E+01
 0.15408163607E+01 0.15408163607E+01 0.15732485957E+01 0.17301869093E+01 0.20166746601E+01
 0.24590841702E+01 0.31066787779E+01 0.40086442888E+01 0.51931175791E+01 0.66808254521E+01
 0.85149740073E+01 0.10749989705E+02 0.13381647685E+02 0.16277848558E+02 0.19180218484E+02
 0.21773838995E+02 0.23760987999E+02 0.24899118327E+02 0.25025494485E+02 0.24097917434E+02
 0.22230419227E+02 0.19677719340E+02 0.16763216432E+02 0.13795920928E+02 0.11018526760E+02
 0.85890842256E+01 0.65803540899E+01 0.49930996132E+01 0.37844502265E+01 0.28979688685E+01
 0.22782804300E+01 0.18728674286E+01 0.16366411656E+01 0.16787626111E+01 0.16308053616E+01
 0.17228250877E+01 0.19533634166E+01 0.23303288846E+01 0.28901274163E+01 0.36994574362E+01
 0.48214290420E+01 0.62800000805E+01 0.80694612964E+01 0.10195605491E+02 0.12680017711E+02
 0.15494742551E+02 0.18484933186E+02 0.21363623252E+02 0.23789236776E+02 0.25459012504E+02
 0.26162298288E+02 0.25802138090E+02 0.24414679048E+02 0.22177732791E+02 0.19376890156E+02
 0.16331700336E+02 0.13325014233E+02 0.10568075240E+02 0.81937348499E+01 0.62580586121E+01
 0.47502722212E+01 0.36182252133E+01 0.27986293214E+01 0.22334715707E+01 0.18728674286E+01
 0.19611207676E+01 0.18157955941E+01 0.18280732328E+01 0.19973246734E+01 0.23271590251E+01
 0.28287312454E+01 0.35420659481E+01 0.45460971956E+01 0.59282072727E+01 0.77330740355E+01
 0.99439767333E+01 0.12511987247E+02 0.15383222974E+02 0.18472466602E+02 0.21602400660E+02
 0.24480767018E+02 0.26755179127E+02 0.28111447321E+02 0.28354625271E+02 0.27446530688E+02
 0.25508005328E+02 0.22792111479E+02 0.19626123598E+02 0.16336790957E+02 0.13192087102E+02
 0.10378850175E+02 0.80043145004E+01 0.61024310551E+01 0.46452276687E+01 0.35677328129E+01
 0.27986293214E+01 0.22782804300E+01 0.24253101340E+01 0.21596019734E+01 0.20762351075E+01
 0.21686375193E+01 0.24431436156E+01 0.29066031031E+01 0.35706427056E+01 0.44816174952E+01
 0.57385512355E+01 0.74554579468E+01 0.96871735869E+01 0.12391408745E+02 0.15462050086E+02
 0.18779862578E+02 0.22205600592E+02 0.25520386193E+02 0.28396157445E+02 0.30455262286E+02
 0.31387322050E+02 0.31044754022E+02 0.29473819097E+02 0.26890966064E+02 0.23626597200E+02
 0.20049104749E+02 0.16488845213E+02 0.13191649965E+02 0.10312835129E+02 0.79307539930E+01
 0.60567547582E+01 0.46452276687E+01 0.36182252133E+01 0.28979688685E+01 0.31227765926E+01
 0.27090996411E+01 0.25096905140E+01 0.25062394152E+01 0.26976491764E+01 0.31000260192E+01
 0.37368109071E+01 0.46351626463E+01 0.58436447453E+01 0.74497428928E+01 0.95578815114E+01
 0.12227978032E+02 0.15425448774E+02 0.19023472044E+02 0.22835596736E+02 0.26626133693E+02
 0.30090265127E+02 0.32854917453E+02 0.34544672963E+02 0.34892025824E+02 0.33826558021E+02
 0.31496010667E+02 0.28219435416E+02 0.24400528639E+02 0.20433874910E+02 0.16635271568E+02
 0.13216611072E+02 0.10298452865E+02 0.79307539930E+01 0.61024310551E+01 0.47502722212E+01
 0.37844502265E+01 0.41092289499E+01 0.35239291672E+01 0.31871451157E+01 0.30704005158E+01
 0.31588481526E+01 0.34619376015E+01 0.40202942676E+01 0.48861822468E+01 0.60980811470E+01
 0.76881137266E+01 0.97159203629E+01 0.12273447692E+02 0.15428381941E+02 0.19146994496E+02
 0.23263447079E+02 0.27507806472E+02 0.31545906411E+02 0.34998538546E+02 0.37466106176E+02
 0.38599063412E+02 0.38202179334E+02 0.36310500365E+02 0.33186791422E+02 0.29244008969E+02
 0.24935158928E+02 0.20656291590E+02 0.16692856958E+02 0.13216611072E+02 0.10312835129E+02
 0.80043145004E+01 0.62580586121E+01 0.49930996132E+01 0.54413947044E+01 0.46708117271E+01
 0.41887380494E+01 0.39506073439E+01 0.39327029797E+01 0.41253976757E+01 0.45494525018E+01
 0.52695114310E+01 0.63734163000E+01 0.79302761291E+01 0.99739277536E+01 0.12528578599E+02
 0.15633928905E+02 0.19317962210E+02 0.23523852704E+02 0.28051925899E+02 0.32563720676E+02
 0.36637294615E+02 0.39834220944E+02 0.41762132111E+02 0.42144033993E+02 0.40893076871E+02
 0.38158021831E+02 0.34299859184E+02 0.29797392701E+02 0.25124570821E+02 0.20656291590E+02
 0.16635271568E+02 0.13191649965E+02 0.10378850175E+02 0.81937348499E+01 0.65803540899E+01
 0.71790141010E+01 0.62273092080E+01 0.56217224647E+01 0.52816427816E+01 0.51650408646E+01
 0.52510007364E+01 0.55338146873E+01 0.60502516429E+01 0.69057395486E+01 0.82453511560E+01
 0.10175788720E+02 0.12715383110E+02 0.15826783196E+02 0.19483936161E+02 0.23672345089E+02
 0.28297848985E+02 0.33095057618E+02 0.37636594710E+02 0.41438922701E+02 0.44069086727E+02
 0.45219793159E+02 0.44739956317E+02 0.42633671036E+02 0.39136562251E+02 0.34686304895E+02
 0.29797392701E+02 0.24935158928E+02 0.20433874910E+02 0.16488845213E+02 0.13192087102E+02
 0.10568075240E+02 0.85890842256E+01 0.93709392070E+01 0.82855112852E+01 0.76296754399E+01
 0.72686096011E+01 0.71032525954E+01 0.70874454755E+01 0.72183415084E+01 0.75274482656E+01
 0.80958813003E+01 0.90686889764E+01 0.10618824320E+02 0.12865066650E+02 0.15819097508E+02
 0.19416224062E+02 0.23579189334E+02 0.28213797905E+02 0.33121756821E+02 0.37935800378E+02
 0.42173108264E+02 0.45350453518E+02 0.47139659197E+02 0.47405557329E+02 0.46088258326E+02
 0.43232417266E+02 0.39136562251E+02 0.34299859184E+02 0.29244008969E+02 0.24400528639E+02
 0.20049104749E+02 0.16336790957E+02 0.13325014233E+02 0.11018526760E+02 0.12016139599E+02
 0.10922946975E+02 0.10375878266E+02 0.10180406075E+02 0.10136490645E+02 0.10107895758E+02
 0.10067661984E+02 0.10084163139E+02 0.10273646454E+02 0.10777384827E+02 0.11768998304E+02
 0.13434932901E+02 0.15902460043E+02 0.19177159746E+02 0.23156785676E+02 0.27686911247E+02
 0.32563742951E+02 0.37473593229E+02 0.41973458314E+02 0.45563378098E+02 0.47852435312E+02
 0.48720169146E+02 0.48143243554E+02 0.46088258326E+02 0.42633671036E+02 0.38158021831E+02
 0.33186791422E+02 0.28219435416E+02 0.23626597200E+02 0.19626123598E+02 0.16331700336E+02
 0.13795920928E+02 0.15020114462E+02 0.14129972988E+02 0.13953800736E+02 0.14234368405E+02
 0.14646664600E+02 0.14893774002E+02 0.14817557425E+02 0.14458282916E+02 0.14018978118E+02
 0.13769930656E+02 0.13971797059E+02 0.14845827192E+02 0.16553189793E+02 0.19158439024E+02
 0.22609411386E+02 0.26759817152E+02 0.31394772306E+02 0.36211618070E+02 0.40793650374E+02
 0.44658419251E+02 0.47357038608E+02 0.48704999824E+02 0.48720169146E+02 0.47405557329E+02
 0.44739956317E+02 0.40893076871E+02 0.36310500365E+02 0.31496010667E+02 0.26890966064E+02
 0.22792111479E+02 0.19376890156E+02 0.16763216432E+02 0.18173979743E+02 0.17735821154E+02
 0.18243412395E+02 0.19367868823E+02 0.20644871852E+02 0.21598889052E+02 0.21877344610E+02
 0.21366322211E+02 0.20241839867E+02 0.18911689934E+02 0.17864268651E+02 0.17509459721E+02
 0.18092590241E+02 0.19693996131E+02 0.22271718478E+02 0.25701322720E+02 0.29787198109E+02
 0.34242762618E+02 0.38671252722E+02 0.42603434880E+02 0.45597641182E+02 0.47357038608E+02
 0.47852435312E+02 0.47139659197E+02 0.45219793159E+02 0.42144033993E+02 0.38202179334E+02
 0.33826558021E+02 0.29473819097E+02 0.25508005328E+02 0.22177732791E+02 0.19677719340E+02
 0.21165927220E+02 0.21394970536E+02 0.22831979447E+02 0.25062717320E+02 0.27622583099E+02
 0.30669431650E+02 0.32940248543E+02 0.32786380555E+02 0.30229894308E+02 0.26976555419E+02
 0.24358045146E+02 0.22253914957E+02 0.21075346176E+02 0.21130877142E+02 0.22438787852E+02
 0.24828238823E+02 0.28053883374E+02 0.31831503324E+02 0.35806365579E+02 0.39543552986E+02
 0.42603434880E+02 0.44658419251E+02 0.45563378098E+02 0.45350453518E+02 0.44069086727E+02
 0.41762132111E+02 0.38599063412E+02 0.34892025824E+02 0.31044754022E+02 0.27446530688E+02
 0.24414679048E+02 0.22230419227E+02 0.23625579503E+02 0.24654512514E+02 0.27108879321E+02
 0.30980846000E+02 0.39590157691E+02 0.53074112368E+02 0.65800073263E+02 0.70903829198E+02
 0.65396099527E+02 0.52347008979E+02 0.38678823635E+02 0.30058401426E+02 0.26361149577E+02
 0.24248460048E+02 0.23632776812E+02 0.24493890803E+02 0.26520815230E+02 0.29330832933E+02
 0.32555052910E+02 0.35806365579E+02 0.38671252722E+02 0.40793650374E+02 0.41973458314E+02
 0.42173108264E+02 0.41438922701E+02 0.39834220944E+02 0.37466106176E+02 0.34544672963E+02
 0.31387322050E+02 0.28354625271E+02 0.25802138090E+02 0.24097917434E+02 0.25204056885E+02
 0.27067653292E+02 0.30514822484E+02 0.39115462804E+02 0.61795118198E+02 0.98054516470E+02
 0.13647572134E+03 0.16111111287E+03 0.16074498711E+03 0.13550283165E+03 0.96766507949E+02
 0.60485388795E+02 0.37989289402E+02 0.29707101608E+02 0.26687579248E+02 0.25314267307E+02
 0.25596992048E+02 0.27109713840E+02 0.29330832933E+02 0.31831503324E+02 0.34242762618E+02
 0.36211618070E+02 0.37473593229E+02 0.37935800378E+02 0.37636594710E+02 0.36637294615E+02
 0.34998538546E+02 0.32854917453E+02 0.30455262286E+02 0.28111447321E+02 0.26162298288E+02
 0.25025494485E+02 0.25674555235E+02 0.28301972245E+02 0.32908497275E+02 0.48453182560E+02
 0.90279159921E+02 0.15983844513E+03 0.24100380556E+03 0.30652987285E+03 0.33129440934E+03
 0.30532937077E+03 0.23908731853E+03 0.15782648371E+03 0.88581146436E+02 0.47205322848E+02
 0.32126486926E+02 0.28007546813E+02 0.25900726429E+02 0.25596992048E+02 0.26520815230E+02
 0.28053883374E+02 0.29787198109E+02 0.31394772306E+02 0.32563742951E+02 0.33121756821E+02
 0.33095057618E+02 0.32563720676E+02 0.31545906411E+02 0.30090265127E+02 0.28396157445E+02
 0.26755179127E+02 0.25459012504E+02 0.24899118327E+02 0.25002315267E+02 0.28210078951E+02
 0.33806720179E+02 0.54841636425E+02 0.11447576182E+03 0.22006108248E+03 0.35490328742E+03
 0.48201949156E+03 0.55910704598E+03 0.55827246995E+03 0.47986572417E+03 0.35222151035E+03
 0.21757135740E+03 0.11253320554E+03 0.53510444815E+02 0.33057879444E+02 0.28007546813E+02
 0.25314267307E+02 0.24493890803E+02 0.24828238823E+02 0.25701322720E+02 0.26759817152E+02
 0.27686911247E+02 0.28213797905E+02 0.28297848985E+02 0.28051925899E+02 0.27507806472E+02
 0.26626133693E+02 0.25520386193E+02 0.24480767018E+02 0.23789236776E+02 0.23760987999E+02
 0.23334417318E+02 0.26849594643E+02 0.32813687388E+02 0.54827860914E+02 0.12392016095E+03
 0.25710911997E+03 0.44327046205E+03 0.64164511922E+03 0.79468207590E+03 0.85184506422E+03
 0.79318157624E+03 0.63911878456E+03 0.44040952134E+03 0.25450892218E+03 0.12191571051E+03
 0.53510444815E+02 0.32126486926E+02 0.26687579248E+02 0.23632776812E+02 0.22438787852E+02
 0.22271718478E+02 0.22609411386E+02 0.23156785676E+02 0.23579189334E+02 0.23672345089E+02