   4   4   0   0
  0.1980770E+02  0.3822700E-09  0.3822700E-09  0.6260700E-09  0.5000000E-15
  1.000000000000000E-004
  CAR 
 Band structure                          
     10.03209023    -11.66234718  301      2.60174541      1.00000000
    -11.662  0.0000E+00  0.0000E+00
    -11.590  0.0000E+00  0.0000E+00
    -11.518  0.0000E+00  0.0000E+00
    -11.445  0.0000E+00  0.0000E+00
    -11.373  0.0000E+00  0.0000E+00
    -11.301  0.0000E+00  0.0000E+00
    -11.228  0.0000E+00  0.0000E+00
    -11.156  0.0000E+00  0.0000E+00
    -11.084  0.0000E+00  0.0000E+00
    -11.012  0.0000E+00  0.0000E+00
    -10.939  0.0000E+00  0.0000E+00
    -10.867  0.0000E+00  0.0000E+00
    -10.795  0.0000E+00  0.0000E+00
    -10.722  0.1777E-10  0.1285E-11
    -10.650  0.3154E+01  0.2281E+00
    -10.578  0.8931E+01  0.8750E+00
    -10.505  0.7392E+00  0.9285E+00
    -10.433  0.5813E+01  0.1349E+01
    -10.361  0.2808E+00  0.1375E+01
    -10.288  0.2773E+00  0.1395E+01
    -10.216  0.6637E+01  0.1875E+01
    -10.144  0.0000E+00  0.1875E+01
    -10.071  0.2719E+00  0.1895E+01
     -9.999  0.1457E+01  0.2000E+01
     -9.927  0.0000E+00  0.2000E+01
     -9.854  0.0000E+00  0.2000E+01
     -9.782  0.0000E+00  0.2000E+01
     -9.710  0.8533E-04  0.2000E+01
     -9.638  0.8631E+01  0.2624E+01
     -9.565  0.6507E+01  0.3101E+01
     -9.493  0.3590E+01  0.3376E+01
     -9.421  0.6904E+01  0.3875E+01
     -9.348  0.1729E+01  0.4000E+01
     -9.276  0.0000E+00  0.4000E+01
     -9.204  0.0000E+00  0.4000E+01
     -9.131  0.0000E+00  0.4000E+01
     -9.059  0.0000E+00  0.4000E+01
     -8.987  0.0000E+00  0.4000E+01
     -8.914  0.0000E+00  0.4000E+01
     -8.842  0.0000E+00  0.4000E+01
     -8.770  0.0000E+00  0.4000E+01
     -8.697  0.0000E+00  0.4000E+01
     -8.625  0.0000E+00  0.4000E+01
     -8.553  0.0000E+00  0.4000E+01
     -8.480  0.0000E+00  0.4000E+01
     -8.408  0.0000E+00  0.4000E+01
     -8.336  0.0000E+00  0.4000E+01
     -8.264  0.0000E+00  0.4000E+01
     -8.191  0.0000E+00  0.4000E+01
     -8.119  0.0000E+00  0.4000E+01
     -8.047  0.0000E+00  0.4000E+01
     -7.974  0.0000E+00  0.4000E+01
     -7.902  0.0000E+00  0.4000E+01
     -7.830  0.0000E+00  0.4000E+01
     -7.757  0.0000E+00  0.4000E+01
     -7.685  0.0000E+00  0.4000E+01
     -7.613  0.0000E+00  0.4000E+01
     -7.540  0.0000E+00  0.4000E+01
     -7.468  0.0000E+00  0.4000E+01
     -7.396  0.0000E+00  0.4000E+01
     -7.323  0.0000E+00  0.4000E+01
     -7.251  0.0000E+00  0.4000E+01
     -7.179  0.0000E+00  0.4000E+01
     -7.107  0.0000E+00  0.4000E+01
     -7.034  0.0000E+00  0.4000E+01
     -6.962  0.0000E+00  0.4000E+01
     -6.890  0.0000E+00  0.4000E+01
     -6.817  0.0000E+00  0.4000E+01
     -6.745  0.0000E+00  0.4000E+01
     -6.673  0.0000E+00  0.4000E+01
     -6.600  0.0000E+00  0.4000E+01
     -6.528  0.0000E+00  0.4000E+01
     -6.456  0.0000E+00  0.4000E+01
     -6.383  0.0000E+00  0.4000E+01
     -6.311  0.0000E+00  0.4000E+01
     -6.239  0.0000E+00  0.4000E+01
     -6.166  0.0000E+00  0.4000E+01
     -6.094  0.0000E+00  0.4000E+01
     -6.022  0.0000E+00  0.4000E+01
     -5.949  0.0000E+00  0.4000E+01
     -5.877  0.0000E+00  0.4000E+01
     -5.805  0.0000E+00  0.4000E+01
     -5.733  0.0000E+00  0.4000E+01
     -5.660  0.0000E+00  0.4000E+01
     -5.588  0.0000E+00  0.4000E+01
     -5.516  0.0000E+00  0.4000E+01
     -5.443  0.0000E+00  0.4000E+01
     -5.371  0.0000E+00  0.4000E+01
     -5.299  0.0000E+00  0.4000E+01
     -5.226  0.0000E+00  0.4000E+01
     -5.154  0.0000E+00  0.4000E+01
     -5.082  0.0000E+00  0.4000E+01
     -5.009  0.0000E+00  0.4000E+01
     -4.937  0.0000E+00  0.4000E+01
     -4.865  0.0000E+00  0.4000E+01
     -4.792  0.0000E+00  0.4000E+01
     -4.720  0.0000E+00  0.4000E+01
     -4.648  0.0000E+00  0.4000E+01
     -4.575  0.0000E+00  0.4000E+01
     -4.503  0.0000E+00  0.4000E+01
     -4.431  0.0000E+00  0.4000E+01
     -4.359  0.4342E-14  0.4000E+01
     -4.286  0.2733E+02  0.5976E+01
     -4.214  0.5486E+02  0.9978E+01
     -4.142  0.4155E+02  0.1304E+02
     -4.069  0.1123E+02  0.1387E+02
     -3.997  0.1728E+01  0.1400E+02
     -3.925  0.1173E+02  0.1485E+02
     -3.852  0.6375E+02  0.1951E+02
     -3.780  0.3438E+02  0.2200E+02
     -3.708  0.1186E+01  0.2209E+02
     -3.635  0.8694E+01  0.2271E+02
     -3.563  0.1169E+02  0.2356E+02
     -3.491  0.5951E+01  0.2399E+02
     -3.418  0.7364E-01  0.2400E+02
     -3.346  0.0000E+00  0.2400E+02
     -3.274  0.0000E+00  0.2400E+02
     -3.202  0.0000E+00  0.2400E+02
     -3.129  0.1276E-03  0.2400E+02
     -3.057  0.1953E+01  0.2414E+02
     -2.985  0.5609E+01  0.2455E+02
     -2.912  0.2770E+01  0.2475E+02
     -2.840  0.3626E+01  0.2501E+02
     -2.768  0.3058E+01  0.2523E+02
     -2.695  0.1361E+01  0.2533E+02
     -2.623  0.7264E+00  0.2538E+02
     -2.551  0.5057E+01  0.2575E+02
     -2.478  0.1734E+01  0.2588E+02
     -2.406  0.1646E+01  0.2599E+02
     -2.334  0.7731E-01  0.2600E+02
     -2.261  0.0000E+00  0.2600E+02
     -2.189  0.0000E+00  0.2600E+02
     -2.117  0.0000E+00  0.2600E+02
     -2.044  0.0000E+00  0.2600E+02
     -1.972  0.0000E+00  0.2600E+02
     -1.900  0.0000E+00  0.2600E+02
     -1.828  0.0000E+00  0.2600E+02
     -1.755  0.0000E+00  0.2600E+02
     -1.683  0.0000E+00  0.2600E+02
     -1.611  0.0000E+00  0.2600E+02
     -1.538  0.0000E+00  0.2600E+02
     -1.466  0.0000E+00  0.2600E+02
     -1.394  0.0000E+00  0.2600E+02
     -1.321  0.0000E+00  0.2600E+02
     -1.249  0.0000E+00  0.2600E+02
     -1.177  0.0000E+00  0.2600E+02
     -1.104  0.0000E+00  0.2600E+02
     -1.032  0.1416E-03  0.2600E+02
     -0.960  0.1672E+01  0.2612E+02
     -0.887  0.0000E+00  0.2612E+02
     -0.815  0.0000E+00  0.2612E+02
     -0.743  0.0000E+00  0.2612E+02
     -0.670  0.1308E-06  0.2613E+02
     -0.598  0.1718E+01  0.2625E+02
     -0.526  0.1186E-05  0.2625E+02
     -0.454  0.6680E+01  0.2673E+02
     -0.381  0.0000E+00  0.2675E+02
     -0.309  0.0000E+00  0.2675E+02
     -0.237  0.0000E+00  0.2675E+02
     -0.164  0.0000E+00  0.2675E+02
     -0.092  0.5583E-11  0.2675E+02
     -0.020  0.4024E+01  0.2704E+02
      0.053  0.2890E+01  0.2725E+02
      0.125  0.3457E+01  0.2750E+02
      0.197  0.1431E-07  0.2750E+02
      0.270  0.1729E+01  0.2762E+02
      0.342  0.1632E+01  0.2774E+02
      0.414  0.1825E+01  0.2788E+02
      0.487  0.0000E+00  0.2788E+02
      0.559  0.0000E+00  0.2788E+02
      0.631  0.9641E-04  0.2788E+02
      0.703  0.3441E+01  0.2812E+02
      0.776  0.6914E+01  0.2862E+02
      0.848  0.0000E+00  0.2862E+02
      0.920  0.1021E+01  0.2870E+02
      0.993  0.2399E+01  0.2888E+02
      1.065  0.6903E+01  0.2937E+02
      1.137  0.3244E-06  0.2938E+02
      1.210  0.3456E+01  0.2962E+02
      1.282  0.7495E-07  0.2963E+02
      1.354  0.5562E+01  0.3003E+02
      1.427  0.7535E+01  0.3058E+02
      1.499  0.5081E+01  0.3096E+02
      1.571  0.3966E+01  0.3125E+02
      1.644  0.1727E+01  0.3137E+02
      1.716  0.0000E+00  0.3138E+02
      1.788  0.1595E+01  0.3149E+02
      1.861  0.1410E+02  0.3252E+02
      1.933  0.4091E+01  0.3288E+02
      2.005  0.5757E-15  0.3288E+02
      2.077  0.1826E+01  0.3301E+02
      2.150  0.3398E+01  0.3326E+02
      2.222  0.8090E+01  0.3384E+02
      2.294  0.6080E+01  0.3428E+02
      2.367  0.8148E+01  0.3488E+02
      2.439  0.6877E+01  0.3538E+02
      2.511  0.6629E+01  0.3588E+02
      2.584  0.1728E+01  0.3600E+02
      2.656  0.0000E+00  0.3600E+02
      2.728  0.0000E+00  0.3600E+02
      2.801  0.0000E+00  0.3600E+02
      2.873  0.0000E+00  0.3600E+02
      2.945  0.0000E+00  0.3600E+02
      3.018  0.0000E+00  0.3600E+02
      3.090  0.0000E+00  0.3600E+02
      3.162  0.0000E+00  0.3600E+02
      3.234  0.0000E+00  0.3600E+02
      3.307  0.0000E+00  0.3600E+02
      3.379  0.0000E+00  0.3600E+02
      3.451  0.0000E+00  0.3600E+02
      3.524  0.0000E+00  0.3600E+02
      3.596  0.0000E+00  0.3600E+02
      3.668  0.0000E+00  0.3600E+02
      3.741  0.0000E+00  0.3600E+02
      3.813  0.0000E+00  0.3600E+02
      3.885  0.0000E+00  0.3600E+02
      3.958  0.0000E+00  0.3600E+02
      4.030  0.0000E+00  0.3600E+02
      4.102  0.0000E+00  0.3600E+02
      4.175  0.0000E+00  0.3600E+02
      4.247  0.6763E-02  0.3600E+02
      4.319  0.1251E+01  0.3609E+02
      4.392  0.2452E-07  0.3609E+02
      4.464  0.4321E+00  0.3612E+02
      4.536  0.8264E+00  0.3618E+02
      4.608  0.1728E+01  0.3631E+02
      4.681  0.8635E+00  0.3637E+02
      4.753  0.1232E-08  0.3638E+02
      4.825  0.3603E+01  0.3664E+02
      4.898  0.1758E+01  0.3676E+02
      4.970  0.1553E+01  0.3688E+02
      5.042  0.3652E-10  0.3688E+02
      5.115  0.1697E+01  0.3700E+02
      5.187  0.0000E+00  0.3700E+02
      5.259  0.2484E-05  0.3700E+02
      5.332  0.3457E+01  0.3725E+02
      5.404  0.1550E+00  0.3726E+02
      5.476  0.3047E+01  0.3748E+02
      5.549  0.2755E+01  0.3768E+02
      5.621  0.4553E+01  0.3801E+02
      5.693  0.3317E+01  0.3825E+02
      5.766  0.0000E+00  0.3825E+02
      5.838  0.0000E+00  0.3825E+02
      5.910  0.0000E+00  0.3825E+02
      5.982  0.0000E+00  0.3825E+02
      6.055  0.0000E+00  0.3825E+02
      6.127  0.1889E+01  0.3839E+02
      6.199  0.8403E+01  0.3899E+02
      6.272  0.4246E-05  0.3900E+02
      6.344  0.3457E+01  0.3925E+02
      6.416  0.0000E+00  0.3925E+02
      6.489  0.1299E-02  0.3925E+02
      6.561  0.4309E+00  0.3928E+02
      6.633  0.1188E+01  0.3937E+02
      6.706  0.1082E+00  0.3938E+02
      6.778  0.1209E-01  0.3938E+02
      6.850  0.8255E+01  0.3997E+02
      6.923  0.3759E+00  0.4000E+02
      6.995  0.0000E+00  0.4000E+02
      7.067  0.0000E+00  0.4000E+02
      7.139  0.0000E+00  0.4000E+02
      7.212  0.0000E+00  0.4000E+02
      7.284  0.0000E+00  0.4000E+02
      7.356  0.0000E+00  0.4000E+02
      7.429  0.0000E+00  0.4000E+02
      7.501  0.0000E+00  0.4000E+02
      7.573  0.2759E-06  0.4000E+02
      7.646  0.6101E+01  0.4044E+02
      7.718  0.4330E+01  0.4075E+02
      7.790  0.5015E+01  0.4112E+02
      7.863  0.0000E+00  0.4112E+02
      7.935  0.0000E+00  0.4112E+02
      8.007  0.2803E-09  0.4113E+02
      8.080  0.6913E+01  0.4162E+02
      8.152  0.3953E-05  0.4163E+02
      8.224  0.5303E+01  0.4201E+02
      8.297  0.6842E+01  0.4250E+02
      8.369  0.2115E+01  0.4266E+02
      8.441  0.3457E+01  0.4291E+02
      8.513  0.6913E+01  0.4341E+02
      8.586  0.2078E+00  0.4342E+02
      8.658  0.7934E+01  0.4400E+02
      8.730  0.0000E+00  0.4400E+02
      8.803  0.0000E+00  0.4400E+02
      8.875  0.0000E+00  0.4400E+02
      8.947  0.0000E+00  0.4400E+02
      9.020  0.0000E+00  0.4400E+02
      9.092  0.0000E+00  0.4400E+02
      9.164  0.0000E+00  0.4400E+02
      9.237  0.0000E+00  0.4400E+02
      9.309  0.0000E+00  0.4400E+02
      9.381  0.0000E+00  0.4400E+02
      9.454  0.0000E+00  0.4400E+02
      9.526  0.0000E+00  0.4400E+02
      9.598  0.0000E+00  0.4400E+02
      9.671  0.0000E+00  0.4400E+02
      9.743  0.0000E+00  0.4400E+02
      9.815  0.0000E+00  0.4400E+02
      9.887  0.0000E+00  0.4400E+02
      9.960  0.0000E+00  0.4400E+02
     10.032  0.0000E+00  0.4400E+02
