    4    4    1    1
  0.1980770E+02  0.3822700E-09  0.3822700E-09  0.6260700E-09  0.5000000E-15
  1.000000000000000E-004
  CAR 
 Band structure                          
     36     81     22
 
  0.0000000E+00  0.0000000E+00  0.0000000E+00  0.1562500E-01
    1      -10.676236   1.000000
    2       -9.665482   1.000000
    3       -4.300365   1.000000
    4       -4.289398   1.000000
    5       -4.265130   1.000000
    6       -4.212197   1.000000
    7       -4.194212   1.000000
    8       -3.900998   1.000000
    9       -3.892828   1.000000
   10       -3.826394   1.000000
   11       -3.812264   1.000000
   12       -3.641919   1.000000
   13       -3.104906   1.000000
   14        1.494199   1.000000
   15        1.591044   1.000000
   16        2.397012   1.000000
   17        2.430480   1.000000
   18        2.551159   1.000000
   19        4.262132   0.000000
   20        5.087574   0.000000
   21        8.307946   0.000000
   22        8.332114   0.000000
 
  0.6539900E-01  0.3775800E-01  0.0000000E+00  0.6250000E-01
    1      -10.617064   1.000000
    2       -9.631494   1.000000
    3       -4.299613   1.000000
    4       -4.282338   1.000000
    5       -4.254803   1.000000
    6       -4.207168   1.000000
    7       -4.179237   1.000000
    8       -3.907177   1.000000
    9       -3.894989   1.000000
   10       -3.854219   1.000000
   11       -3.810691   1.000000
   12       -3.617140   1.000000
   13       -3.024670   1.000000
   14        1.011143   1.000000
   15        1.412367   1.000000
   16        1.874701   1.000000
   17        2.321196   1.000000
   18        2.460671   1.000000
   19        4.795909   0.000000
   20        5.546356   0.000000
   21        8.052616   0.000000
   22        8.475662   0.000000
 
  0.1307980E+00  0.7551600E-01  0.0000000E+00  0.3125000E-01
    1      -10.448472   1.000000
    2       -9.540931   1.000000
    3       -4.300654   1.000000
    4       -4.254528   1.000000
    5       -4.232761   1.000000
    6       -4.187877   1.000000
    7       -4.136131   1.000000
    8       -3.922808   1.000000
    9       -3.903999   1.000000
   10       -3.884743   1.000000
   11       -3.806087   1.000000
   12       -3.578707   1.000000
   13       -2.805547   1.000000
   14        0.080965   1.000000
   15        0.688452   1.000000
   16        1.188803   1.000000
   17        2.093974   1.000000
   18        2.187488   1.000000
   19        5.628221   0.000000
   20        6.303161   0.000000
   21        7.708235   0.000000
   22        8.618128   0.000000
 
  0.6539900E-01  0.1132740E+00  0.0000000E+00  0.3125000E-01
    1      -10.503168   1.000000
    2       -9.569221   1.000000
    3       -4.301298   1.000000
    4       -4.263393   1.000000
    5       -4.238648   1.000000
    6       -4.195010   1.000000
    7       -4.150096   1.000000
    8       -3.918106   1.000000
    9       -3.900543   1.000000
   10       -3.879901   1.000000
   11       -3.807552   1.000000
   12       -3.589083   1.000000
   13       -2.874488   1.000000
   14        0.336433   1.000000
   15        0.934920   1.000000
   16        1.347115   1.000000
   17        2.169682   1.000000
   18        2.277926   1.000000
   19        5.410479   0.000000
   20        6.120701   0.000000
   21        7.765912   0.000000
   22        8.641005   0.000000
 
  0.1307980E+00  0.1510320E+00  0.0000000E+00  0.6250000E-01
    1      -10.278625   1.000000
    2       -9.460567   1.000000
    3       -4.287647   1.000000
    4       -4.226811   1.000000
    5       -4.224558   1.000000
    6       -4.162908   1.000000
    7       -4.092676   1.000000
    8       -3.933284   1.000000
    9       -3.912870   1.000000
   10       -3.888897   1.000000
   11       -3.801232   1.000000
   12       -3.546904   1.000000
   13       -2.612803   1.000000
   14       -0.491716   1.000000
   15       -0.013546   1.000000
   16        0.747308   1.000000
   17        1.852178   1.000000
   18        1.863594   1.000000
   19        6.186256   0.000000
   20        6.802356   0.000000
   21        7.609533   0.000000
   22        8.237072   0.000000
 
 -0.6539900E-01  0.3775800E-01  0.0000000E+00  0.3125000E-01
    1      -10.652719   1.000000
    2       -9.651948   1.000000
    3       -4.297618   1.000000
    4       -4.285686   1.000000
    5       -4.264575   1.000000
    6       -4.206955   1.000000
    7       -4.191365   1.000000
    8       -3.901795   1.000000
    9       -3.894966   1.000000
   10       -3.831899   1.000000
   11       -3.819807   1.000000
   12       -3.629780   1.000000
   13       -3.072852   1.000000
   14        1.345676   1.000000
   15        1.463566   1.000000
   16        2.237751   1.000000
   17        2.366346   1.000000
   18        2.430565   1.000000
   19        4.524160   0.000000
   20        5.291531   0.000000
   21        8.184527   0.000000
   22        8.397225   0.000000
 
  0.1307980E+00  0.2265480E+00  0.0000000E+00  0.1562500E-01
    1      -10.067129   1.000000
    2       -9.379895   1.000000
    3       -4.262908   1.000000
    4       -4.216443   1.000000
    5       -4.194606   1.000000
    6       -4.118141   1.000000
    7       -4.043777   1.000000
    8       -3.947052   1.000000
    9       -3.912749   1.000000
   10       -3.882466   1.000000
   11       -3.793171   1.000000
   12       -3.497511   1.000000
   13       -2.462432   1.000000
   14       -1.007972   1.000000
   15       -0.612700   1.000000
   16        0.236471   1.000000
   17        1.509810   1.000000
   18        1.535688   1.000000
   19        6.628534   0.000000
   20        6.791600   0.000000
   21        7.682460   0.000000
   22        8.190508   0.000000
 
  0.0000000E+00  0.0000000E+00  0.3993200E-01  0.3125000E-01
    1      -10.672928   1.000000
    2       -9.670363   1.000000
    3       -4.300605   1.000000
    4       -4.289217   1.000000
    5       -4.264979   1.000000
    6       -4.212634   1.000000
    7       -4.194620   1.000000
    8       -3.900605   1.000000
    9       -3.892427   1.000000
   10       -3.826584   1.000000
   11       -3.812478   1.000000
   12       -3.670930   1.000000
   13       -3.062134   1.000000
   14        1.497503   1.000000
   15        1.594408   1.000000
   16        2.347153   1.000000
   17        2.426344   1.000000
   18        2.546888   1.000000
   19        4.307202   0.000000
   20        5.091680   0.000000
   21        8.310360   0.000000
   22        8.626347   0.000000
 
  0.6539900E-01  0.3775800E-01  0.3993200E-01  0.1250000E+00
    1      -10.613804   1.000000
    2       -9.636179   1.000000
    3       -4.300021   1.000000
    4       -4.282009   1.000000
    5       -4.254622   1.000000
    6       -4.207648   1.000000
    7       -4.179655   1.000000
    8       -3.906731   1.000000
    9       -3.894730   1.000000
   10       -3.856609   1.000000
   11       -3.810930   1.000000
   12       -3.640232   1.000000
   13       -2.985735   1.000000
   14        1.015014   1.000000
   15        1.414880   1.000000
   16        1.850246   1.000000
   17        2.309209   1.000000
   18        2.456171   1.000000
   19        4.824677   0.000000
   20        5.550368   0.000000
   21        8.053251   0.000000
   22        8.477650   0.000000
 
  0.1307980E+00  0.7551600E-01  0.3993200E-01  0.6250000E-01
    1      -10.445399   1.000000
    2       -9.545105   1.000000
    3       -4.301026   1.000000
    4       -4.254356   1.000000
    5       -4.232557   1.000000
    6       -4.188387   1.000000
    7       -4.136588   1.000000
    8       -3.922412   1.000000
    9       -3.906265   1.000000
   10       -3.885296   1.000000
   11       -3.806374   1.000000
   12       -3.594041   1.000000
   13       -2.775230   1.000000
   14        0.086137   1.000000
   15        0.681026   1.000000
   16        1.183959   1.000000
   17        2.087173   1.000000
   18        2.181931   1.000000
   19        5.638686   0.000000
   20        6.307147   0.000000
   21        7.712923   0.000000
   22        8.617230   0.000000
 
  0.6539900E-01  0.1132740E+00  0.3993200E-01  0.6250000E-01
    1      -10.500031   1.000000
    2       -9.573565   1.000000
    3       -4.301674   1.000000
    4       -4.263169   1.000000
    5       -4.238448   1.000000
    6       -4.195532   1.000000
    7       -4.150538   1.000000
    8       -3.917656   1.000000
    9       -3.901802   1.000000
   10       -3.881516   1.000000
   11       -3.807826   1.000000
   12       -3.606296   1.000000
   13       -2.841696   1.000000
   14        0.341196   1.000000
   15        0.929173   1.000000
   16        1.339152   1.000000
   17        2.161000   1.000000
   18        2.272680   1.000000
   19        5.426155   0.000000
   20        6.124619   0.000000
   21        7.769105   0.000000
   22        8.642581   0.000000
 
  0.1307980E+00  0.1510320E+00  0.3993200E-01  0.1250000E+00
    1      -10.275771   1.000000
    2       -9.464198   1.000000
    3       -4.288056   1.000000
    4       -4.226763   1.000000
    5       -4.224347   1.000000
    6       -4.163328   1.000000
    7       -4.093176   1.000000
    8       -3.932515   1.000000
    9       -3.917306   1.000000
   10       -3.887382   1.000000
   11       -3.801537   1.000000
   12       -3.558263   1.000000
   13       -2.589581   1.000000
   14       -0.484119   1.000000
   15       -0.020868   1.000000
   16        0.744858   1.000000
   17        1.850645   1.000000
   18        1.857993   1.000000
   19        6.182092   0.000000
   20        6.805812   0.000000
   21        7.619071   0.000000
   22        8.239432   0.000000
 
 -0.6539900E-01  0.3775800E-01  0.3993200E-01  0.6250000E-01
    1      -10.649424   1.000000
    2       -9.656737   1.000000
    3       -4.297947   1.000000
    4       -4.285466   1.000000
    5       -4.264362   1.000000
    6       -4.207396   1.000000
    7       -4.191782   1.000000
    8       -3.901401   1.000000
    9       -3.894538   1.000000
   10       -3.833250   1.000000
   11       -3.820413   1.000000
   12       -3.655714   1.000000
   13       -3.031608   1.000000
   14        1.349285   1.000000
   15        1.466989   1.000000
   16        2.187929   1.000000
   17        2.366147   1.000000
   18        2.432081   1.000000
   19        4.559621   0.000000
   20        5.295681   0.000000
   21        8.185714   0.000000
   22        8.416718   0.000000
 
  0.1307980E+00  0.2265480E+00  0.3993200E-01  0.3125000E-01
    1      -10.064617   1.000000
    2       -9.382767   1.000000
    3       -4.263345   1.000000
    4       -4.216378   1.000000
    5       -4.194598   1.000000
    6       -4.118459   1.000000
    7       -4.044375   1.000000
    8       -3.947371   1.000000
    9       -3.916103   1.000000
   10       -3.880351   1.000000
   11       -3.793451   1.000000
   12       -3.505672   1.000000
   13       -2.449422   1.000000
   14       -0.997448   1.000000
   15       -0.618813   1.000000
   16        0.237123   1.000000
   17        1.510180   1.000000
   18        1.532798   1.000000
   19        6.590031   0.000000
   20        6.815397   0.000000
   21        7.697993   0.000000
   22        8.189231   0.000000
 
  0.0000000E+00  0.0000000E+00  0.7986300E-01  0.1562500E-01
    1      -10.663010   1.000000
    2       -9.684791   1.000000
    3       -4.301276   1.000000
    4       -4.288678   1.000000
    5       -4.264528   1.000000
    6       -4.213918   1.000000
    7       -4.195818   1.000000
    8       -3.899450   1.000000
    9       -3.891267   1.000000
   10       -3.827154   1.000000
   11       -3.813119   1.000000
   12       -3.738642   1.000000
   13       -2.952768   1.000000
   14        1.507401   1.000000
   15        1.604472   1.000000
   16        2.210536   1.000000
   17        2.414106   1.000000
   18        2.534252   1.000000
   19        4.429039   0.000000
   20        5.104346   0.000000
   21        8.317713   0.000000
   22        8.586137   0.000000
 
  0.6539900E-01  0.3775800E-01  0.7986300E-01  0.6250000E-01
    1      -10.604056   1.000000
    2       -9.650109   1.000000
    3       -4.301158   1.000000
    4       -4.281063   1.000000
    5       -4.254085   1.000000
    6       -4.209075   1.000000
    7       -4.180889   1.000000
    8       -3.905412   1.000000
    9       -3.894276   1.000000
   10       -3.865043   1.000000
   11       -3.811654   1.000000
   12       -3.693386   1.000000
   13       -2.883612   1.000000
   14        1.026620   1.000000
   15        1.421483   1.000000
   16        1.778132   1.000000
   17        2.276870   1.000000
   18        2.442514   1.000000
   19        4.906749   0.000000
   20        5.562555   0.000000
   21        8.054594   0.000000
   22        8.490215   0.000000
 
  0.1307980E+00  0.7551600E-01  0.7986300E-01  0.3125000E-01
    1      -10.436207   1.000000
    2       -9.557537   1.000000
    3       -4.302095   1.000000
    4       -4.253825   1.000000
    5       -4.231945   1.000000
    6       -4.189908   1.000000
    7       -4.137936   1.000000
    8       -3.922653   1.000000
    9       -3.913270   1.000000
   10       -3.885911   1.000000
   11       -3.807229   1.000000
   12       -3.632245   1.000000
   13       -2.691783   1.000000
   14        0.101842   1.000000
   15        0.657269   1.000000
   16        1.172357   1.000000
   17        2.066113   1.000000
   18        2.165678   1.000000
   19        5.670190   0.000000
   20        6.319425   0.000000
   21        7.726126   0.000000
   22        8.613163   0.000000
 
  0.6539900E-01  0.1132740E+00  0.7986300E-01  0.3125000E-01
    1      -10.490651   1.000000
    2       -9.586496   1.000000
    3       -4.302762   1.000000
    4       -4.262489   1.000000
    5       -4.237841   1.000000
    6       -4.197080   1.000000
    7       -4.151846   1.000000
    8       -3.916920   1.000000
    9       -3.907470   1.000000
   10       -3.884651   1.000000
   11       -3.808642   1.000000
   12       -3.648174   1.000000
   13       -2.752466   1.000000
   14        0.355472   1.000000
   15        0.909106   1.000000
   16        1.318952   1.000000
   17        2.134719   1.000000
   18        2.257050   1.000000
   19        5.472444   0.000000
   20        6.136337   0.000000
   21        7.777917   0.000000
   22        8.645987   0.000000
 
  0.1307980E+00  0.1510320E+00  0.7986300E-01  0.6250000E-01
    1      -10.267243   1.000000
    2       -9.475002   1.000000
    3       -4.289265   1.000000
    4       -4.226597   1.000000
    5       -4.223748   1.000000
    6       -4.164583   1.000000
    7       -4.094670   1.000000
    8       -3.931801   1.000000
    9       -3.927777   1.000000
   10       -3.884313   1.000000
   11       -3.802445   1.000000
   12       -3.588073   1.000000
   13       -2.524159   1.000000
   14       -0.461344   1.000000
   15       -0.043409   1.000000
   16        0.738885   1.000000
   17        1.836686   1.000000
   18        1.848655   1.000000
   19        6.171824   0.000000
   20        6.815496   0.000000
   21        7.645176   0.000000
   22        8.244656   0.000000
 
 -0.6539900E-01  0.3775800E-01  0.7986300E-01  0.3125000E-01
    1      -10.639568   1.000000
    2       -9.670976   1.000000
    3       -4.298873   1.000000
    4       -4.284804   1.000000
    5       -4.263749   1.000000
    6       -4.208708   1.000000
    7       -4.193023   1.000000
    8       -3.900222   1.000000
    9       -3.893287   1.000000
   10       -3.839329   1.000000
   11       -3.822142   1.000000
   12       -3.714464   1.000000
   13       -2.925220   1.000000
   14        1.360023   1.000000
   15        1.477232   1.000000
   16        2.061651   1.000000
   17        2.356938   1.000000
   18        2.429075   1.000000
   19        4.658691   0.000000
   20        5.308004   0.000000
   21        8.187887   0.000000
   22        8.408938   0.000000
 
  0.1307980E+00  0.2265480E+00  0.7986300E-01  0.1562500E-01
    1      -10.057112   1.000000
    2       -9.391342   1.000000
    3       -4.264647   1.000000
    4       -4.216228   1.000000
    5       -4.194489   1.000000
    6       -4.119401   1.000000
    7       -4.046164   1.000000
    8       -3.950443   1.000000
    9       -3.922187   1.000000
   10       -3.875912   1.000000
   11       -3.794283   1.000000
   12       -3.528133   1.000000
   13       -2.412556   1.000000
   14       -0.967706   1.000000
   15       -0.635217   1.000000
   16        0.240089   1.000000
   17        1.496689   1.000000
   18        1.537111   1.000000
   19        6.508091   0.000000
   20        6.858199   0.000000
   21        7.739351   0.000000
   22        8.185272   0.000000
 
  0.0000000E+00  0.0000000E+00  0.5000000E+00  0.0000000E+00
    1      -10.218666   1.000000
    2      -10.218666   1.000000
    3       -4.270158   1.000000
    4       -4.270158   1.000000
    5       -4.258679   1.000000
    6       -4.258679   1.000000
    7       -4.236632   1.000000
    8       -4.236632   1.000000
    9       -3.857354   1.000000
   10       -3.857354   1.000000
   11       -3.846060   1.000000
   12       -3.846060   1.000000
   13       -0.595120   1.000000
   14       -0.595120   1.000000
   15        1.937129   1.000000
   16        1.937129   1.000000
   17        2.043737   1.000000
   18        2.043737   1.000000
   19        5.594885   0.000000
   20        5.594885   0.000000
   21        8.802079   0.000000
   22        8.802079   0.000000
 
  0.0000000E+00  0.3125000E-01  0.5000000E+00  0.0000000E+00
    1      -10.212627   1.000000
    2      -10.212627   1.000000
    3       -4.273032   1.000000
    4       -4.273032   1.000000
    5       -4.255013   1.000000
    6       -4.255013   1.000000
    7       -4.235017   1.000000
    8       -4.235017   1.000000
    9       -3.857238   1.000000
   10       -3.857238   1.000000
   11       -3.846037   1.000000
   12       -3.846037   1.000000
   13       -0.596337   1.000000
   14       -0.596337   1.000000
   15        1.890707   1.000000
   16        1.890707   1.000000
   17        2.021508   1.000000
   18        2.021508   1.000000
   19        5.654126   0.000000
   20        5.654126   0.000000
   21        8.632812   0.000000
   22        8.632812   0.000000
 
  0.0000000E+00  0.6250000E-01  0.5000000E+00  0.0000000E+00
    1      -10.194655   1.000000
    2      -10.194655   1.000000
    3       -4.277962   1.000000
    4       -4.277962   1.000000
    5       -4.247564   1.000000
    6       -4.247564   1.000000
    7       -4.230315   1.000000
    8       -4.230315   1.000000
    9       -3.856871   1.000000
   10       -3.856871   1.000000
   11       -3.845940   1.000000
   12       -3.845940   1.000000
   13       -0.601316   1.000000
   14       -0.601316   1.000000
   15        1.749853   1.000000
   16        1.749853   1.000000
   17        1.970377   1.000000
   18        1.970377   1.000000
   19        5.816372   0.000000
   20        5.816372   0.000000
   21        8.389400   0.000000
   22        8.389400   0.000000
 
  0.0000000E+00  0.9375000E-01  0.5000000E+00  0.0000000E+00
    1      -10.165186   1.000000
    2      -10.165186   1.000000
    3       -4.282786   1.000000
    4       -4.282786   1.000000
    5       -4.238214   1.000000
    6       -4.238214   1.000000
    7       -4.222860   1.000000
    8       -4.222860   1.000000
    9       -3.856171   1.000000
   10       -3.856171   1.000000
   11       -3.845701   1.000000
   12       -3.845701   1.000000
   13       -0.614311   1.000000
   14       -0.614311   1.000000
   15        1.539957   1.000000
   16        1.539957   1.000000
   17        1.899006   1.000000
   18        1.899006   1.000000
   19        6.042695   0.000000
   20        6.042695   0.000000
   21        8.152267   0.000000
   22        8.152267   0.000000
 
  0.0000000E+00  0.1250000E+00  0.5000000E+00  0.0000000E+00
    1      -10.124966   1.000000
    2      -10.124966   1.000000
    3       -4.287020   1.000000
    4       -4.287020   1.000000
    5       -4.227168   1.000000
    6       -4.227168   1.000000
    7       -4.212945   1.000000
    8       -4.212945   1.000000
    9       -3.854993   1.000000
   10       -3.854993   1.000000
   11       -3.845168   1.000000
   12       -3.845168   1.000000
   13       -0.643206   1.000000
   14       -0.643206   1.000000
   15        1.299794   1.000000
   16        1.299794   1.000000
   17        1.809254   1.000000
   18        1.809254   1.000000
   19        6.278855   0.000000
   20        6.278855   0.000000
   21        7.952213   0.000000
   22        7.952213   0.000000
 
  0.0000000E+00  0.1562500E+00  0.5000000E+00  0.0000000E+00
    1      -10.075044   1.000000
    2      -10.075044   1.000000
    3       -4.290410   1.000000
    4       -4.290410   1.000000
    5       -4.214420   1.000000
    6       -4.214420   1.000000
    7       -4.200765   1.000000
    8       -4.200765   1.000000
    9       -3.853185   1.000000
   10       -3.853185   1.000000
   11       -3.844120   1.000000
   12       -3.844120   1.000000
   13       -0.699982   1.000000
   14       -0.699982   1.000000
   15        1.065211   1.000000
   16        1.065211   1.000000
   17        1.705049   1.000000
   18        1.705049   1.000000
   19        6.456205   0.000000
   20        6.456205   0.000000
   21        7.831728   0.000000
   22        7.831728   0.000000
 
  0.0000000E+00  0.1875000E+00  0.5000000E+00  0.0000000E+00
    1      -10.016810   1.000000
    2      -10.016810   1.000000
    3       -4.292803   1.000000
    4       -4.292803   1.000000
    5       -4.199893   1.000000
    6       -4.199893   1.000000
    7       -4.186640   1.000000
    8       -4.186640   1.000000
    9       -3.850631   1.000000
   10       -3.850631   1.000000
   11       -3.842219   1.000000
   12       -3.842219   1.000000
   13       -0.799306   1.000000
   14       -0.799306   1.000000
   15        0.866146   1.000000
   16        0.866146   1.000000
   17        1.591232   1.000000
   18        1.591232   1.000000
   19        6.510024   0.000000
   20        6.510024   0.000000
   21        7.818639   0.000000
   22        7.818639   0.000000
 
  0.0000000E+00  0.2187500E+00  0.5000000E+00  0.0000000E+00
    1       -9.951991   1.000000
    2       -9.951991   1.000000
    3       -4.294128   1.000000
    4       -4.294128   1.000000
    5       -4.183344   1.000000
    6       -4.183344   1.000000
    7       -4.170965   1.000000
    8       -4.170965   1.000000
    9       -3.847336   1.000000
   10       -3.847336   1.000000
   11       -3.838868   1.000000
   12       -3.838868   1.000000
   13       -0.951542   1.000000
   14       -0.951542   1.000000
   15        0.723245   1.000000
   16        0.723245   1.000000
   17        1.472747   1.000000
   18        1.472747   1.000000
   19        6.443098   0.000000
   20        6.443098   0.000000
   21        7.868003   0.000000
   22        7.868003   0.000000
 
  0.0000000E+00  0.2500000E+00  0.5000000E+00  0.0000000E+00
    1       -9.882661   1.000000
    2       -9.882661   1.000000
    3       -4.294393   1.000000
    4       -4.294393   1.000000
    5       -4.164880   1.000000
    6       -4.164880   1.000000
    7       -4.153823   1.000000
    8       -4.153823   1.000000
    9       -3.843506   1.000000
   10       -3.843506   1.000000
   11       -3.833139   1.000000
   12       -3.833139   1.000000
   13       -1.154324   1.000000
   14       -1.154324   1.000000
   15        0.641005   1.000000
   16        0.641005   1.000000
   17        1.354375   1.000000
   18        1.354375   1.000000
   19        6.312001   0.000000
   20        6.312001   0.000000
   21        7.891792   0.000000
   22        7.891792   0.000000
 
  0.0000000E+00  0.2812500E+00  0.5000000E+00  0.0000000E+00
    1       -9.811217   1.000000
    2       -9.811217   1.000000
    3       -4.293719   1.000000
    4       -4.293719   1.000000
    5       -4.146287   1.000000
    6       -4.146287   1.000000
    7       -4.133812   1.000000
    8       -4.133812   1.000000
    9       -3.839266   1.000000
   10       -3.839266   1.000000
   11       -3.823961   1.000000
   12       -3.823961   1.000000
   13       -1.392783   1.000000
   14       -1.392783   1.000000
   15        0.608935   1.000000
   16        0.608935   1.000000
   17        1.240175   1.000000
   18        1.240175   1.000000
   19        6.161074   0.000000
   20        6.161074   0.000000
   21        7.851276   0.000000
   22        7.851276   0.000000
 
  0.0000000E+00  0.3125000E+00  0.5000000E+00  0.0000000E+00
    1       -9.740379   1.000000
    2       -9.740379   1.000000
    3       -4.292358   1.000000
    4       -4.292358   1.000000
    5       -4.130229   1.000000
    6       -4.130229   1.000000
    7       -4.109088   1.000000
    8       -4.109088   1.000000
    9       -3.834565   1.000000
   10       -3.834565   1.000000
   11       -3.810127   1.000000
   12       -3.810127   1.000000
   13       -1.648130   1.000000
   14       -1.648130   1.000000
   15        0.611490   1.000000
   16        0.611490   1.000000
   17        1.133898   1.000000
   18        1.133898   1.000000
   19        6.012888   0.000000
   20        6.012888   0.000000
   21        7.760221   0.000000
   22        7.760221   0.000000
 
  0.0000000E+00  0.3437500E+00  0.5000000E+00  0.0000000E+00
    1       -9.673120   1.000000
    2       -9.673120   1.000000
    3       -4.290608   1.000000
    4       -4.290608   1.000000
    5       -4.116864   1.000000
    6       -4.116864   1.000000
    7       -4.081165   1.000000
    8       -4.081165   1.000000
    9       -3.829462   1.000000
   10       -3.829462   1.000000
   11       -3.789869   1.000000
   12       -3.789869   1.000000
   13       -1.903674   1.000000
   14       -1.903674   1.000000
   15        0.634040   1.000000
   16        0.634040   1.000000
   17        1.038680   1.000000
   18        1.038680   1.000000
   19        5.878372   0.000000
   20        5.878372   0.000000
   21        7.644196   0.000000
   22        7.644196   0.000000
 
  0.0000000E+00  0.3750000E+00  0.5000000E+00  0.0000000E+00
    1       -9.612499   1.000000
    2       -9.612499   1.000000
    3       -4.288785   1.000000
    4       -4.288785   1.000000
    5       -4.105955   1.000000
    6       -4.105955   1.000000
    7       -4.053095   1.000000
    8       -4.053095   1.000000
    9       -3.824236   1.000000
   10       -3.824236   1.000000
   11       -3.761099   1.000000
   12       -3.761099   1.000000
   13       -2.145904   1.000000
   14       -2.145904   1.000000
   15        0.665676   1.000000
   16        0.665676   1.000000
   17        0.957506   1.000000
   18        0.957506   1.000000
   19        5.763211   0.000000
   20        5.763211   0.000000
   21        7.525910   0.000000
   22        7.525910   0.000000
 
  0.0000000E+00  0.4062500E+00  0.5000000E+00  0.0000000E+00
    1       -9.561488   1.000000
    2       -9.561488   1.000000
    3       -4.287109   1.000000
    4       -4.287109   1.000000
    5       -4.097483   1.000000
    6       -4.097483   1.000000
    7       -4.028290   1.000000
    8       -4.028290   1.000000
    9       -3.819322   1.000000
   10       -3.819322   1.000000
   11       -3.722873   1.000000
   12       -3.722873   1.000000
   13       -2.362419   1.000000
   14       -2.362419   1.000000
   15        0.697913   1.000000
   16        0.697913   1.000000
   17        0.892813   1.000000
   18        0.892813   1.000000
   19        5.671010   0.000000
   20        5.671010   0.000000
   21        7.420603   0.000000
   22        7.420603   0.000000
 
  0.0000000E+00  0.4375000E+00  0.5000000E+00  0.0000000E+00
    1       -9.522803   1.000000
    2       -9.522803   1.000000
    3       -4.285791   1.000000
    4       -4.285791   1.000000
    5       -4.091487   1.000000
    6       -4.091487   1.000000
    7       -4.009606   1.000000
    8       -4.009606   1.000000
    9       -3.815287   1.000000
   10       -3.815287   1.000000
   11       -3.678674   1.000000
   12       -3.678674   1.000000
   13       -2.539821   1.000000
   14       -2.539821   1.000000
   15        0.723966   1.000000
   16        0.723966   1.000000
   17        0.846778   1.000000
   18        0.846778   1.000000
   19        5.603772   0.000000
   20        5.603772   0.000000
   21        7.338619   0.000000
   22        7.338619   0.000000
 
  0.0000000E+00  0.4687500E+00  0.5000000E+00  0.0000000E+00
    1       -9.498656   1.000000
    2       -9.498656   1.000000
    3       -4.284968   1.000000
    4       -4.284968   1.000000
    5       -4.087925   1.000000
    6       -4.087925   1.000000
    7       -3.998345   1.000000
    8       -3.998345   1.000000
    9       -3.812632   1.000000
   10       -3.812632   1.000000
   11       -3.639850   1.000000
   12       -3.639850   1.000000
   13       -2.660616   1.000000
   14       -2.660616   1.000000
   15        0.739079   1.000000
   16        0.739079   1.000000
   17        0.821055   1.000000
   18        0.821055   1.000000
   19        5.562839   0.000000
   20        5.562839   0.000000
   21        7.287034   0.000000
   22        7.287034   0.000000
 
  0.0000000E+00  0.5000000E+00  0.5000000E+00  0.0000000E+00
    1       -9.490442   1.000000
    2       -9.490442   1.000000
    3       -4.284677   1.000000
    4       -4.284677   1.000000
    5       -4.086743   1.000000
    6       -4.086743   1.000000
    7       -3.994615   1.000000
    8       -3.994615   1.000000
    9       -3.811706   1.000000
   10       -3.811706   1.000000
   11       -3.623695   1.000000
   12       -3.623695   1.000000
   13       -2.704329   1.000000
   14       -2.704329   1.000000
   15        0.743218   1.000000
   16        0.743218   1.000000