 vasp.5.4.1 24Jun15 (build Oct 13 2015 09:47:18) complex                        
  
 executed on           IFC91_ompi date 2016.02.03  16:38:37
 running on    1 total cores
 distrk:  each k-point on    1 cores,    1 groups
 distr:  one band on NCORES_PER_BAND=   1 cores,    1 groups


--------------------------------------------------------------------------------------------------------


 INCAR:
 POTCAR:    PAW_PBE Zn 06Sep2000                  
 POTCAR:    PAW_PBE S 06Sep2000                   
 POTCAR:    PAW_PBE Zn 06Sep2000                  
   VRHFIN =Zn: d10 p2                                                           
   LEXCH  = PE                                                                  
   EATOM  =  1748.8345 eV,  128.5357 Ry                                         
                                                                                
   TITEL  = PAW_PBE Zn 06Sep2000                                                
   LULTRA =        F    use ultrasoft PP ?                                      
   IUNSCR =        1    unscreen: 0-lin 1-nonlin 2-no                           
   RPACOR =    2.000    partial core radius                                     
   POMASS =   65.390; ZVAL   =   12.000    mass and valenz                      
   RCORE  =    2.300    outmost cutoff radius                                   
   RWIGS  =    2.400; RWIGS  =    1.270    wigner-seitz radius (au A)           
   ENMAX  =  276.723; ENMIN  =  207.542 eV                                      
   RCLOC  =    1.828    cutoff for local pot                                    
   LCOR   =        T    correct aug charges                                     
   LPAW   =        T    paw PP                                                  
   EAUG   =  575.892                                                            
   DEXC   =    0.000                                                            
   RMAX   =    2.347    core radius for proj-oper                               
   RAUG   =    1.300    factor for augmentation sphere                          
   RDEP   =    2.324    radius for radial grids                                 
   RDEPT  =    1.788    core radius for aug-charge                              
                                                                                
   Atomic configuration                                                         
    9 entries                                                                   
     n  l   j            E        occ.                                          
     1  0  0.50     -9524.6913   2.0000                                         
     2  0  0.50     -1158.1882   2.0000                                         
     2  1  1.50     -1003.8506   6.0000                                         
     3  0  0.50      -129.2194   2.0000                                         
     3  1  1.50       -83.3890   6.0000                                         
     3  2  2.50       -10.1410  10.0000                                         
     4  0  0.50        -5.9785   2.0000                                         
     4  1  0.50        -4.0817   0.0000                                         
     4  3  2.50        -1.3606   0.0000                                         
   Description                                                                  
     l       E           TYP  RCUT    TYP  RCUT                                 
     2    -10.1410010     23  2.300                                             
     2    -11.5015836     23  2.300                                             
     0     -5.9785163     23  2.300                                             
     0      1.1858015     23  2.300                                             
     1     -2.7211652     23  2.300                                             
     1     13.2444212     23  2.300                                             
  local pseudopotential read in
  partial core-charges read in
  partial kinetic energy density read in
  atomic valenz-charges read in
  non local Contribution for L=           2  read in
    real space projection operators read in
  non local Contribution for L=           2  read in
    real space projection operators read in
  non local Contribution for L=           0  read in
    real space projection operators read in
  non local Contribution for L=           0  read in
    real space projection operators read in
  non local Contribution for L=           1  read in
    real space projection operators read in
  non local Contribution for L=           1  read in
    real space projection operators read in
    PAW grid and wavefunctions read in
 
   number of l-projection  operators is LMAX  =           6
   number of lm-projection operators is LMMAX =          18
 
 POTCAR:    PAW_PBE S 06Sep2000                   
   VRHFIN =S : s2p4                                                             
   LEXCH  = PE                                                                  
   EATOM  =   276.8230 eV,   20.3459 Ry                                         
                                                                                
   TITEL  = PAW_PBE S 06Sep2000                                                 
   LULTRA =        F    use ultrasoft PP ?                                      
   IUNSCR =        1    unscreen: 0-lin 1-nonlin 2-no                           
   RPACOR =    1.500    partial core radius                                     
   POMASS =   32.066; ZVAL   =    6.000    mass and valenz                      
   RCORE  =    1.900    outmost cutoff radius                                   
   RWIGS  =    2.200; RWIGS  =    1.164    wigner-seitz radius (au A)           
   ENMAX  =  258.689; ENMIN  =  194.016 eV                                      
   ICORE  =        2    local potential                                         
   LCOR   =        T    correct aug charges                                     
   LPAW   =        T    paw PP                                                  
   EAUG   =  335.092                                                            
   DEXC   =    0.000                                                            
   RMAX   =    1.942    core radius for proj-oper                               
   RAUG   =    1.300    factor for augmentation sphere                          
   RDEP   =    1.954    radius for radial grids                                 
   RDEPT  =    1.744    core radius for aug-charge                              
                                                                                
   Atomic configuration                                                         
    6 entries                                                                   
     n  l   j            E        occ.                                          
     1  0  0.50     -2405.8406   2.0000                                         
     2  0  0.50      -211.7007   2.0000                                         
     2  1  1.50      -156.4958   6.0000                                         
     3  0  0.50       -17.2562   2.0000                                         
     3  1  0.50        -7.0085   4.0000                                         
     3  2  1.50        -6.8029   0.0000                                         
   Description                                                                  
     l       E           TYP  RCUT    TYP  RCUT                                 
     0    -17.2561641     23  1.900                                             
     0    -15.8743224     23  1.900                                             
     1     -7.0085400     23  1.900                                             
     1     -2.7779785     23  1.900                                             
     2     -6.8029130     23  1.900                                             
  local pseudopotential read in
  partial core-charges read in
  partial kinetic energy density read in
  atomic valenz-charges read in
  non local Contribution for L=           0  read in
    real space projection operators read in
  non local Contribution for L=           0  read in
    real space projection operators read in
  non local Contribution for L=           1  read in
    real space projection operators read in
  non local Contribution for L=           1  read in
    real space projection operators read in
    PAW grid and wavefunctions read in
 
   number of l-projection  operators is LMAX  =           4
   number of lm-projection operators is LMMAX =           8
 

 ----------------------------------------------------------------------------- 
|                                                                             |
|  ADVICE TO THIS USER RUNNING 'VASP/VAMP'   (HEAR YOUR MASTER'S VOICE ...):  |
|                                                                             |
|      You enforced a specific xc-type in the INCAR file,                     |
|      a different type was found on the POTCAR file                          |
|          I HOPE YOU KNOW, WHAT YOU ARE  DOING                               |
|                                                                             |
 ----------------------------------------------------------------------------- 

  PAW_PBE Zn 06Sep2000                  :
 energy of atom  1       EATOM=-1748.8345
 kinetic energy error for atom=    0.0293 (will be added to EATOM!!)
  PAW_PBE S 06Sep2000                   :
 energy of atom  2       EATOM= -276.8230
 kinetic energy error for atom=    0.0077 (will be added to EATOM!!)
 
 
 POSCAR: Zn  S                                   
  positions in cartesian coordinates
  No initial velocities read in
 exchange correlation table for  LEXCH =       14
   RHO(1)=    0.500       N(1)  =     2000
   RHO(2)=  100.500       N(2)  =     4000
 


--------------------------------------------------------------------------------------------------------


 ion  position               nearest neighbor table
   1  0.333  0.667  0.000-   4 2.34   4 2.34   4 2.34   3 2.35
   2  0.667  0.333  0.500-   3 2.34   3 2.34   3 2.34   4 2.35
   3  0.333  0.667  0.375-   2 2.34   2 2.34   2 2.34   1 2.35
   4  0.667  0.333  0.875-   1 2.34   1 2.34   1 2.34   2 2.35
 
  LATTYP: Found a hexagonal cell.
 ALAT       =     3.8227000000
 C/A-ratio  =     1.6377691161
  
  Lattice vectors:
  
 A1 = (   3.8227000000,   0.0000000000,   0.0000000000)
 A2 = (  -1.9113500000,   3.3105553110,   0.0000000000)
 A3 = (   0.0000000000,   0.0000000000,   6.2607000000)


Analysis of symmetry for initial positions (statically):
=====================================================================
 Subroutine PRICEL returns:
 Original cell was already a primitive cell.
 

 Routine SETGRP: Setting up the symmetry group for a 
 hexagonal supercell.


 Subroutine GETGRP returns: Found  4 space group operations
 (whereof  2 operations were pure point group operations)
 out of a pool of 24 trial point group operations.


The static configuration has the point symmetry C_1h.
 The point group associated with its full space group is C_2v.


Analysis of symmetry for dynamics (positions and initial velocities):
=====================================================================
 Subroutine PRICEL returns:
 Original cell was already a primitive cell.
 

 Routine SETGRP: Setting up the symmetry group for a 
 hexagonal supercell.


 Subroutine GETGRP returns: Found  4 space group operations
 (whereof  2 operations were pure point group operations)
 out of a pool of 24 trial point group operations.


The dynamic configuration has the point symmetry C_1h.
 The point group associated with its full space group is C_2v.
 
 
 KPOINTS: KPOINTS created by Atomic Simulation Env
  k-points in reciprocal lattice
Space group operators:
 irot       det(A)        alpha          n_x          n_y          n_z        tau_x        tau_y        tau_z
    1     1.000000     0.000000     1.000000     0.000000     0.000000     0.000000     0.000000     0.000000
    2    -1.000000   180.000000     0.500000     0.866025    -0.000000     0.000000     0.000000     0.000000
    3     1.000000   180.000000     0.000000     0.000000     1.000000     0.000000     0.000000     0.500000
    4    -1.000000   180.000000    -0.866025     0.500000    -0.000000     0.000000     0.000000     0.500000


--------------------------------------------------------------------------------------------------------




 Dimension of arrays:
   k-points           NKPTS =     81   k-points in BZ     NKDIM =     81   number of bands    NBANDS=     22
   number of dos      NEDOS =    301   number of ions     NIONS =      4
   non local maximal  LDIM  =      6   non local SUM 2l+1 LMDIM =     18
   total plane-waves  NPLWV =   7168
   max r-space proj   IRMAX =      1   max aug-charges    IRDMAX=   3049
   dimension x,y,z NGX =    16 NGY =   16 NGZ =   28
   dimension x,y,z NGXF=    32 NGYF=   32 NGZF=   56
   support grid    NGXF=    32 NGYF=   32 NGZF=   56
   ions per type =               2   2
 NGX,Y,Z   is equivalent  to a cutoff of   6.96,  6.96,  7.44 a.u.
 NGXF,Y,Z  is equivalent  to a cutoff of  13.92, 13.92, 14.87 a.u.


 I would recommend the setting:
   dimension x,y,z NGX =    16 NGY =   16 NGZ =   27
 SYSTEM =  Band structure                          
 POSCAR =  Zn  S                                   

 Startparameter for this run:
   NWRITE =      2    write-flag & timer
   PREC   = normal    normal or accurate (medium, high low for compatibility)
   ISTART =      1    job   : 0-new  1-cont  2-samecut
   ICHARG =      0    charge: 1-file 2-atom 10-const
   ISPIN  =      1    spin polarized calculation?
   LNONCOLLINEAR =      F non collinear calculations
   LSORBIT =      F    spin-orbit coupling
   INIWAV =      1    electr: 0-lowe 1-rand  2-diag
   LASPH  =      F    aspherical Exc in radial PAW
   METAGGA=      F    non-selfconsistent MetaGGA calc.

 Electronic Relaxation 1
   ENCUT  =  300.0 eV  22.05 Ry    4.70 a.u.   5.40  5.40  8.84*2*pi/ulx,y,z
   ENINI  =  300.0     initial cutoff
   ENAUG  =  575.9 eV  augmentation charge cutoff
   NELM   =     60;   NELMIN=  2; NELMDL=  0     # of ELM steps 
   EDIFF  = 0.1E-03   stopping-criterion for ELM
   LREAL  =      F    real-space projection
   NLSPLINE    = F    spline interpolate recip. space projectors
   LCOMPAT=      F    compatible to vasp.4.4
   GGA_COMPAT  = T    GGA compatible to vasp.4.4-vasp.4.6
   LMAXPAW     = -100 max onsite density
   LMAXMIX     =    2 max onsite mixed and CHGCAR
   VOSKOWN=      0    Vosko Wilk Nusair interpolation
   ROPT   =    0.00000   0.00000
 Ionic relaxation
   EDIFFG = 0.1E-02   stopping-criterion for IOM
   NSW    =      0    number of steps for IOM
   NBLOCK =      1;   KBLOCK =      1    inner block; outer block 
   IBRION =     -1    ionic relax: 0-MD 1-quasi-New 2-CG
   NFREE  =      0    steps in history (QN), initial steepest desc. (CG)
   ISIF   =      2    stress and relaxation
   IWAVPR =     10    prediction:  0-non 1-charg 2-wave 3-comb
   ISYM   =      2    0-nonsym 1-usesym 2-fastsym
   LCORR  =      T    Harris-Foulkes like correction to forces

   POTIM  = 0.5000    time-step for ionic-motion
   TEIN   =    0.0    initial temperature
   TEBEG  =    0.0;   TEEND  =   0.0 temperature during run
   SMASS  =  -3.00    Nose mass-parameter (am)
   estimated Nose-frequenzy (Omega)   =  0.10E-29 period in steps =****** mass=  -0.334E-27a.u.
   SCALEE = 1.0000    scale energy and forces
   NPACO  =    256;   APACO  = 16.0  distance and # of slots for P.C.
   PSTRESS=    0.0 pullay stress

  Mass of Ions in am
   POMASS =  65.39 32.07
  Ionic Valenz
   ZVAL   =  12.00  6.00
  Atomic Wigner-Seitz radii
   RWIGS  =  -1.00 -1.00
  virtual crystal weights 
   VCA    =   1.00  1.00
   NELECT =      36.0000    total number of electrons
   NUPDOWN=      -1.0000    fix difference up-down

 DOS related values:
   EMIN   =  10.00;   EMAX   =-10.00  energy-range for DOS
   EFERMI =   0.00
   ISMEAR =     0;   SIGMA  =   0.01  broadening in eV -4-tet -1-fermi 0-gaus

 Electronic relaxation 2 (details)
   IALGO  =     38    algorithm
   LDIAG  =      T    sub-space diagonalisation (order eigenvalues)
   LSUBROT=      F    optimize rotation matrix (better conditioning)
   TURBO    =      0    0=normal 1=particle mesh
   IRESTART =      0    0=no restart 2=restart with 2 vectors
   NREBOOT  =      0    no. of reboots
   NMIN     =      0    reboot dimension
   EREF     =   0.00    reference energy to select bands
   IMIX   =      4    mixing-type and parameters
     AMIX     =   0.40;   BMIX     =  1.00
     AMIX_MAG =   1.60;   BMIX_MAG =  1.00
     AMIN     =   0.10
     WC   =   100.;   INIMIX=   1;  MIXPRE=   1;  MAXMIX= -45

 Intra band minimization:
   WEIMIN = 0.0000     energy-eigenvalue tresh-hold
   EBREAK =  0.11E-05  absolut break condition
   DEPER  =   0.30     relativ break condition  

   TIME   =   0.40     timestep for ELM

  volume/ion in A,a.u.               =      19.81       133.67
  Fermi-wavevector in a.u.,A,eV,Ry     =   1.258571  2.378354 21.551637  1.584001
  Thomas-Fermi vector in A             =   2.392174
 
 Write flags
   LWAVE  =      T    write WAVECAR
   LCHARG =      T    write CHGCAR
   LVTOT  =      F    write LOCPOT, total local potential
   LVHAR  =      F    write LOCPOT, Hartree potential only
   LELF   =      F    write electronic localiz. function (ELF)
   LORBIT =      0    0 simple, 1 ext, 2 COOP (PROOUT)


 Dipole corrections
   LMONO  =      F    monopole corrections only (constant potential shift)
   LDIPOL =      F    correct potential (dipole corrections)
   IDIPOL =      0    1-x, 2-y, 3-z, 4-all directions 
   EPSILON=  1.0000000 bulk dielectric constant

 Exchange correlation treatment:
   GGA     =    PS    GGA type
   LEXCH   =    14    internal setting for exchange type
   VOSKOWN=      0    Vosko Wilk Nusair interpolation
   LHFCALC =     F    Hartree Fock is set to
   LHFONE  =     F    Hartree Fock one center treatment
   AEXX    =    0.0000 exact exchange contribution

 Linear response parameters
   LEPSILON=     F    determine dielectric tensor
   LRPA    =     F    only Hartree local field effects (RPA)
   LNABLA  =     F    use nabla operator in PAW spheres
   LVEL    =     F    velocity operator in full k-point grid
   LINTERFAST=   F  fast interpolation
   KINTER  =     0    interpolate to denser k-point grid
   CSHIFT  =0.1000    complex shift for real part using Kramers Kronig
   OMEGAMAX=  -1.0    maximum frequency
   DEG_THRESHOLD= 0.2000000E-02 threshold for treating states as degnerate
   RTIME   =    0.100 relaxation time in fs

 Orbital magnetization related:
   ORBITALMAG=     F  switch on orbital magnetization
   LCHIMAG   =     F  perturbation theory with respect to B field
   DQ        =  0.001000  dq finite difference perturbation B field



--------------------------------------------------------------------------------------------------------


 Static calculation
 charge density and potential will be updated during run
 non-spin polarized calculation
 Variant of blocked Davidson
 Davidson routine will perform the subspace rotation
 perform sub-space diagonalisation
    after iterative eigenvector-optimisation
 modified Broyden-mixing scheme, WC =      100.0
 initial mixing is a Kerker type mixing with AMIX =  0.4000 and BMIX =      1.0000
 Hartree-type preconditioning will be used
 using additional bands            4
 reciprocal scheme for non local part
 use partial core corrections
 calculate Harris-corrections to forces 
   (improved forces if not selfconsistent)
 use gradient corrections 
 use of overlap-Matrix (Vanderbilt PP)
 Gauss-broadening in eV      SIGMA  =   0.01


--------------------------------------------------------------------------------------------------------


  energy-cutoff  :      300.00
  volume of cell :       79.23
      direct lattice vectors                 reciprocal lattice vectors
     3.822700000  0.000000000  0.000000000     0.261595208  0.151032064 -0.000000000
    -1.911350000  3.310555311  0.000000000     0.000000000  0.302064127 -0.000000000
     0.000000000  0.000000000  6.260700000     0.000000000  0.000000000  0.159726548

  length of vectors
     3.822700000  3.822700000  6.260700000     0.302064127  0.302064127  0.159726548


 
 old parameters found on file WAVECAR:
  energy-cutoff  :      300.00
  volume of cell :       79.23
      direct lattice vectors                 reciprocal lattice vectors
     3.822700000  0.000000000  0.000000000     0.261595208  0.151032064 -0.000000000
    -1.911350000  3.310555311  0.000000000     0.000000000  0.302064127 -0.000000000
     0.000000000  0.000000000  6.260700000     0.000000000  0.000000000  0.159726548

  length of vectors

 
 k-points in units of 2pi/SCALE and weight: KPOINTS created by Atomic Simulation Env
   0.00000000  0.00000000  0.00000000       0.016
   0.01710806  0.02128268 -0.00000000       0.062
   0.03421613  0.04256537 -0.00000000       0.031
   0.01710806  0.04409336 -0.00000000       0.031
   0.03421613  0.06537604 -0.00000000       0.062
  -0.01710806  0.00152799  0.00000000       0.031
   0.03421613  0.08818672 -0.00000000       0.016
   0.00000000  0.00000000  0.00637820       0.031
   0.01710806  0.02128268  0.00637820       0.125
   0.03421613  0.04256537  0.00637820       0.062
   0.01710806  0.04409336  0.00637820       0.062
   0.03421613  0.06537604  0.00637820       0.125
  -0.01710806  0.00152799  0.00637820       0.062
   0.03421613  0.08818672  0.00637820       0.031
   0.00000000  0.00000000  0.01275624       0.016
   0.01710806  0.02128268  0.01275624       0.062
   0.03421613  0.04256537  0.01275624       0.031
   0.01710806  0.04409336  0.01275624       0.031
   0.03421613  0.06537604  0.01275624       0.062
  -0.01710806  0.00152799  0.01275624       0.031
   0.03421613  0.08818672  0.01275624       0.016
   0.00000000  0.00000000  0.07986327       0.000
   0.00000000  0.00943950  0.07986327       0.000
   0.00000000  0.01887901  0.07986327       0.000
   0.00000000  0.02831851  0.07986327       0.000
   0.00000000  0.03775802  0.07986327       0.000
   0.00000000  0.04719752  0.07986327       0.000
   0.00000000  0.05663702  0.07986327       0.000
   0.00000000  0.06607653  0.07986327       0.000
   0.00000000  0.07551603  0.07986327       0.000
   0.00000000  0.08495554  0.07986327       0.000
   0.00000000  0.09439504  0.07986327       0.000
   0.00000000  0.10383454  0.07986327       0.000
   0.00000000  0.11327405  0.07986327       0.000
   0.00000000  0.12271355  0.07986327       0.000
   0.00000000  0.13215306  0.07986327       0.000
   0.00000000  0.14159256  0.07986327       0.000
   0.00000000  0.15103206  0.07986327       0.000
   0.00000000  0.15103206  0.06988036       0.000
   0.00000000  0.15103206  0.05989746       0.000
   0.00000000  0.15103206  0.04991455       0.000
   0.00000000  0.15103206  0.03993164       0.000
   0.00000000  0.15103206  0.02994873       0.000
   0.00000000  0.15103206  0.01996582       0.000
   0.00000000  0.15103206  0.00998291       0.000
   0.00000000  0.15103206 -0.00000000       0.000
   0.00000000  0.14159256 -0.00000000       0.000
   0.00000000  0.13215306 -0.00000000       0.000
   0.00000000  0.12271355 -0.00000000       0.000
   0.00000000  0.11327405 -0.00000000       0.000
   0.00000000  0.10383454 -0.00000000       0.000
   0.00000000  0.09439504 -0.00000000       0.000
   0.00000000  0.08495554 -0.00000000       0.000
   0.00000000  0.07551603 -0.00000000       0.000
   0.00000000  0.06607653 -0.00000000       0.000
   0.00000000  0.05663702 -0.00000000       0.000
   0.00000000  0.04719752 -0.00000000       0.000
   0.00000000  0.03775802 -0.00000000       0.000
   0.00000000  0.02831851 -0.00000000       0.000
   0.00000000  0.01887901 -0.00000000       0.000
   0.00000000  0.00943950 -0.00000000       0.000
   0.00000000  0.00000000  0.00000000       0.000
   0.00000000  0.00000000  0.00998291       0.000
   0.00000000  0.00000000  0.01996582       0.000
   0.00000000  0.00000000  0.02994873       0.000
   0.00000000  0.00000000  0.03993164       0.000
   0.00000000  0.00000000  0.04991455       0.000
   0.00000000  0.00000000  0.05989746       0.000
   0.00000000  0.00000000  0.06988036       0.000
   0.00000000  0.00000000  0.07986327       0.000
  -0.00792712  0.00457672  0.07986327       0.000
  -0.01585424  0.00915345  0.07986327       0.000
  -0.02378136  0.01373017  0.07986327       0.000
  -0.03170848  0.01830690  0.07986327       0.000
  -0.03963560  0.02288362  0.07986327       0.000
  -0.04756272  0.02746035  0.07986327       0.000
  -0.05548984  0.03203707  0.07986327       0.000
  -0.06341696  0.03661380  0.07986327       0.000
  -0.07134408  0.04119052  0.07986327       0.000
  -0.07927120  0.04576725  0.07986327       0.000
  -0.08719832  0.05034397  0.07986327       0.000
 
 k-points in reciprocal lattice and weights: KPOINTS created by Atomic Simulation Env
   0.00000000  0.00000000  0.00000000       0.016
   0.06539900  0.03775800  0.00000000       0.062
   0.13079800  0.07551600  0.00000000       0.031
   0.06539900  0.11327400  0.00000000       0.031
   0.13079800  0.15103200  0.00000000       0.062
  -0.06539900  0.03775800  0.00000000       0.031
   0.13079800  0.22654800  0.00000000       0.016
   0.00000000  0.00000000  0.03993200       0.031
   0.06539900  0.03775800  0.03993200       0.125
   0.13079800  0.07551600  0.03993200       0.062
   0.06539900  0.11327400  0.03993200       0.062
   0.13079800  0.15103200  0.03993200       0.125
  -0.06539900  0.03775800  0.03993200       0.062
   0.13079800  0.22654800  0.03993200       0.031
   0.00000000  0.00000000  0.07986300       0.016
   0.06539900  0.03775800  0.07986300       0.062
   0.13079800  0.07551600  0.07986300       0.031
   0.06539900  0.11327400  0.07986300       0.031
   0.13079800  0.15103200  0.07986300       0.062
  -0.06539900  0.03775800  0.07986300       0.031
   0.13079800  0.22654800  0.07986300       0.016
   0.00000000  0.00000000  0.50000000       0.000
   0.00000000  0.03125000  0.50000000       0.000
   0.00000000  0.06250000  0.50000000       0.000
   0.00000000  0.09375000  0.50000000       0.000
   0.00000000  0.12500000  0.50000000       0.000
   0.00000000  0.15625000  0.50000000       0.000
   0.00000000  0.18750000  0.50000000       0.000
   0.00000000  0.21875000  0.50000000       0.000
   0.00000000  0.25000000  0.50000000       0.000
   0.00000000  0.28125000  0.50000000       0.000
   0.00000000  0.31250000  0.50000000       0.000
   0.00000000  0.34375000  0.50000000       0.000
   0.00000000  0.37500000  0.50000000       0.000
   0.00000000  0.40625000  0.50000000       0.000
   0.00000000  0.43750000  0.50000000       0.000
   0.00000000  0.46875000  0.50000000       0.000
   0.00000000  0.50000000  0.50000000       0.000
   0.00000000  0.50000000  0.43750000       0.000
   0.00000000  0.50000000  0.37500000       0.000
   0.00000000  0.50000000  0.31250000       0.000
   0.00000000  0.50000000  0.25000000       0.000
   0.00000000  0.50000000  0.18750000       0.000
   0.00000000  0.50000000  0.12500000       0.000
   0.00000000  0.50000000  0.06250000       0.000
   0.00000000  0.50000000  0.00000000       0.000
   0.00000000  0.46875000  0.00000000       0.000
   0.00000000  0.43750000  0.00000000       0.000
   0.00000000  0.40625000  0.00000000       0.000
   0.00000000  0.37500000  0.00000000       0.000
   0.00000000  0.34375000  0.00000000       0.000
   0.00000000  0.31250000  0.00000000       0.000
   0.00000000  0.28125000  0.00000000       0.000
   0.00000000  0.25000000  0.00000000       0.000
   0.00000000  0.21875000  0.00000000       0.000
   0.00000000  0.18750000  0.00000000       0.000
   0.00000000  0.15625000  0.00000000       0.000
   0.00000000  0.12500000  0.00000000       0.000
   0.00000000  0.09375000  0.00000000       0.000
   0.00000000  0.06250000  0.00000000       0.000
   0.00000000  0.03125000  0.00000000       0.000
   0.00000000  0.00000000  0.00000000       0.000
   0.00000000  0.00000000  0.06250000       0.000
   0.00000000  0.00000000  0.12500000       0.000
   0.00000000  0.00000000  0.18750000       0.000
   0.00000000  0.00000000  0.25000000       0.000
   0.00000000  0.00000000  0.31250000       0.000
   0.00000000  0.00000000  0.37500000       0.000
   0.00000000  0.00000000  0.43750000       0.000
   0.00000000  0.00000000  0.50000000       0.000
  -0.03030300  0.03030300  0.50000000       0.000
  -0.06060600  0.06060600  0.50000000       0.000
  -0.09090900  0.09090900  0.50000000       0.000
  -0.12121200  0.12121200  0.50000000       0.000
  -0.15151500  0.15151500  0.50000000       0.000
  -0.18181800  0.18181800  0.50000000       0.000
  -0.21212100  0.21212100  0.50000000       0.000
  -0.24242400  0.24242400  0.50000000       0.000
  -0.27272700  0.27272700  0.50000000       0.000
  -0.30303000  0.30303000  0.50000000       0.000
  -0.33333300  0.33333300  0.50000000       0.000
 
 position of ions in fractional coordinates (direct lattice) 
   0.33330000  0.66670000  0.00000000
   0.66670000  0.33330000  0.50000000
   0.33330000  0.66670000  0.37480000
   0.66670000  0.33330000  0.87480000
 
 position of ions in cartesian coordinates  (Angst):
  -0.00019113  2.20714723  0.00000000
   1.91154113  1.10340809  3.13035000
  -0.00019113  2.20714723  2.34651036
   1.91154113  1.10340809  5.47686036
 


--------------------------------------------------------------------------------------------------------


 k-point  1 :   0.0000 0.0000 0.0000  plane waves:     941
 k-point  2 :   0.0654 0.0378 0.0000  plane waves:     947
 k-point  3 :   0.1308 0.0755 0.0000  plane waves:     943
 k-point  4 :   0.0654 0.1133 0.0000  plane waves:     943
 k-point  5 :   0.1308 0.1510 0.0000  plane waves:     951
 k-point  6 :  -0.0654 0.0378 0.0000  plane waves:     953
 k-point  7 :   0.1308 0.2265 0.0000  plane waves:     938
 k-point  8 :   0.0000 0.0000 0.0399  plane waves:     947
 k-point  9 :   0.0654 0.0378 0.0399  plane waves:     946
 k-point 10 :   0.1308 0.0755 0.0399  plane waves:     945
 k-point 11 :   0.0654 0.1133 0.0399  plane waves:     944
 k-point 12 :   0.1308 0.1510 0.0399  plane waves:     948
 k-point 13 :  -0.0654 0.0378 0.0399  plane waves:     952
 k-point 14 :   0.1308 0.2265 0.0399  plane waves:     937
 k-point 15 :   0.0000 0.0000 0.0799  plane waves:     953
 k-point 16 :   0.0654 0.0378 0.0799  plane waves:     943
 k-point 17 :   0.1308 0.0755 0.0799  plane waves:     944
 k-point 18 :   0.0654 0.1133 0.0799  plane waves:     944
 k-point 19 :   0.1308 0.1510 0.0799  plane waves:     948
 k-point 20 :  -0.0654 0.0378 0.0799  plane waves:     951
 k-point 21 :   0.1308 0.2265 0.0799  plane waves:     936
 k-point 22 :   0.0000 0.0000 0.5000  plane waves:     966
 k-point 23 :   0.0000 0.0312 0.5000  plane waves:     960
 k-point 24 :   0.0000 0.0625 0.5000  plane waves:     948
 k-point 25 :   0.0000 0.0938 0.5000  plane waves:     944
 k-point 26 :   0.0000 0.1250 0.5000  plane waves:     948
 k-point 27 :   0.0000 0.1562 0.5000  plane waves:     940
 k-point 28 :   0.0000 0.1875 0.5000  plane waves:     938
 k-point 29 :   0.0000 0.2188 0.5000  plane waves:     938
 k-point 30 :   0.0000 0.2500 0.5000  plane waves:     934
 k-point 31 :   0.0000 0.2812 0.5000  plane waves:     930
 k-point 32 :   0.0000 0.3125 0.5000  plane waves:     926
 k-point 33 :   0.0000 0.3438 0.5000  plane waves:     926
 k-point 34 :   0.0000 0.3750 0.5000  plane waves:     934
 k-point 35 :   0.0000 0.4062 0.5000  plane waves:     932
 k-point 36 :   0.0000 0.4375 0.5000  plane waves:     932
 k-point 37 :   0.0000 0.4688 0.5000  plane waves:     936
 k-point 38 :   0.0000 0.5000 0.5000  plane waves:     932
 k-point 39 :   0.0000 0.5000 0.4375  plane waves:     938
 k-point 40 :   0.0000 0.5000 0.3750  plane waves:     932
 k-point 41 :   0.0000 0.5000 0.3125  plane waves:     934
 k-point 42 :   0.0000 0.5000 0.2500  plane waves:     928
 k-point 43 :   0.0000 0.5000 0.1875  plane waves:     930
 k-point 44 :   0.0000 0.5000 0.1250  plane waves:     920
 k-point 45 :   0.0000 0.5000 0.0625  plane waves:     924
 k-point 46 :   0.0000 0.5000 0.0000  plane waves:     924
 k-point 47 :   0.0000 0.4688 0.0000  plane waves:     924
 k-point 48 :   0.0000 0.4375 0.0000  plane waves:     926
 k-point 49 :   0.0000 0.4062 0.0000  plane waves:     924
 k-point 50 :   0.0000 0.3750 0.0000  plane waves:     928
 k-point 51 :   0.0000 0.3438 0.0000  plane waves:     934
 k-point 52 :   0.0000 0.3125 0.0000  plane waves:     935
 k-point 53 :   0.0000 0.2812 0.0000  plane waves:     935
 k-point 54 :   0.0000 0.2500 0.0000  plane waves:     945
 k-point 55 :   0.0000 0.2188 0.0000  plane waves:     949
 k-point 56 :   0.0000 0.1875 0.0000  plane waves:     945
 k-point 57 :   0.0000 0.1562 0.0000  plane waves:     947
 k-point 58 :   0.0000 0.1250 0.0000  plane waves:     945
 k-point 59 :   0.0000 0.0938 0.0000  plane waves:     951
 k-point 60 :   0.0000 0.0625 0.0000  plane waves:     951
 k-point 61 :   0.0000 0.0312 0.0000  plane waves:     951
 k-point 62 :   0.0000 0.0000 0.0000  plane waves:     941
 k-point 63 :   0.0000 0.0000 0.0625  plane waves:     953
 k-point 64 :   0.0000 0.0000 0.1250  plane waves:     953
 k-point 65 :   0.0000 0.0000 0.1875  plane waves:     954
 k-point 66 :   0.0000 0.0000 0.2500  plane waves:     954
 k-point 67 :   0.0000 0.0000 0.3125  plane waves:     942
 k-point 68 :   0.0000 0.0000 0.3750  plane waves:     960
 k-point 69 :   0.0000 0.0000 0.4375  plane waves:     966
 k-point 70 :   0.0000 0.0000 0.5000  plane waves:     966
 k-point 71 :  -0.0303 0.0303 0.5000  plane waves:     960
 k-point 72 :  -0.0606 0.0606 0.5000  plane waves:     948
 k-point 73 :  -0.0909 0.0909 0.5000  plane waves:     944
 k-point 74 :  -0.1212 0.1212 0.5000  plane waves:     948
 k-point 75 :  -0.1515 0.1515 0.5000  plane waves:     940
 k-point 76 :  -0.1818 0.1818 0.5000  plane waves:     942
 k-point 77 :  -0.2121 0.2121 0.5000  plane waves:     938
 k-point 78 :  -0.2424 0.2424 0.5000  plane waves:     938
 k-point 79 :  -0.2727 0.2727 0.5000  plane waves:     930
 k-point 80 :  -0.3030 0.3030 0.5000  plane waves:     930
 k-point 81 :  -0.3333 0.3333 0.5000  plane waves:     928

 maximum and minimum number of plane-waves per node :       966      920

 maximum number of plane-waves:       966
 maximum index in each direction: 
   IXMAX=    5   IYMAX=    5   IZMAX=    8
   IXMIN=   -5   IYMIN=   -5   IZMIN=   -9

 WARNING: aliasing errors must be expected set NGX to  22 to avoid them
 WARNING: aliasing errors must be expected set NGY to  22 to avoid them
 WARNING: aliasing errors must be expected set NGZ to  36 to avoid them
 aliasing errors are usually negligible using standard VASP settings
 and one can safely disregard these warnings

 serial   3D FFT for wavefunctions
 parallel 3D FFT for charge:
    minimum data exchange during FFTs selected (reduces bandwidth)


 total amount of memory used by VASP on root node    87283. kBytes
========================================================================

   base      :      30000. kBytes
   nonl-proj :      22596. kBytes
   fftplans  :       2016. kBytes
   grid      :       3584. kBytes
   one-center:         62. kBytes
   wavefun   :      29025. kBytes
 
     INWAV:  cpu time    0.0460: real time    0.0460
 Broyden mixing: mesh for mixing (old mesh)
   NGX = 11   NGY = 11   NGZ = 17
  (NGX  = 32   NGY  = 32   NGZ  = 56)
  gives a total of   2057 points

 charge density for first step will be calculated from the start-wavefunctions


--------------------------------------------------------------------------------------------------------


 Maximum index for augmentation-charges         2754 (set IRDMAX)


--------------------------------------------------------------------------------------------------------


 initial charge from wavefunction
 First call to EWALD:  gamma=   0.413
 Maximum number of real-space cells 3x 3x 2
 Maximum number of reciprocal cells 2x 2x 4

 FEWALD executed in parallel
    FEWALD:  cpu time    0.0012: real time    0.0011


----------------------------------------- Iteration    1(   1)  ---------------------------------------


    POTLOK:  cpu time    0.0801: real time    0.0210
    SETDIJ:  cpu time    0.0095: real time    0.0062
     EDDAV:  cpu time    6.9316: real time    1.7853
       DOS:  cpu time    0.0029: real time    0.0007
    CHARGE:  cpu time    0.1324: real time    0.0333
    MIXING:  cpu time    0.0036: real time    0.0009
    --------------------------------------------
      LOOP:  cpu time    7.1624: real time    1.8482

 eigenvalue-minimisations  :  4790
 total energy-change (2. order) :-0.4082006E+01  (-0.2815535E+02)
 number of electron      35.9999722 magnetization 
 augmentation part       14.7280800 magnetization 

 Broyden mixing:
  rms(total) = 0.46388E+01    rms(broyden)= 0.46388E+01
  rms(prec ) = 0.46546E+01
  weight for this iteration     100.00

 Free energy of the ion-electron system (eV)
  ---------------------------------------------------
  alpha Z        PSCENC =       142.72218768
  Ewald energy   TEWEN  =     -2500.38568288
  -Hartree energ DENC   =     -1363.34788880
  -exchange      EXHF   =         0.00000000
  -V(xc)+E(xc)   XCENC  =       140.49851410
  PAW double counting   =     12827.64680627   -13182.74341784
  entropy T*S    EENTRO =        -0.00000000
  eigenvalues    EBANDS =      -116.55263950
  atomic energy  EATOM  =      4048.08011476
  Solvation  Ediel_sol  =         0.00000000
  ---------------------------------------------------
  free energy    TOTEN  =        -4.08200621 eV

  energy without entropy =       -4.08200621  energy(sigma->0) =       -4.08200621


--------------------------------------------------------------------------------------------------------




----------------------------------------- Iteration    1(   2)  ---------------------------------------


    POTLOK:  cpu time    0.0795: real time    0.0201
    SETDIJ:  cpu time    0.0235: real time    0.0059
     EDDAV:  cpu time    5.6919: real time    1.4375
       DOS:  cpu time    0.0025: real time    0.0006
    CHARGE:  cpu time    0.1321: real time    0.0331
    MIXING:  cpu time    0.0032: real time    0.0008
    --------------------------------------------
      LOOP:  cpu time    5.9388: real time    1.4999

 eigenvalue-minimisations  :  3950
 total energy-change (2. order) :-0.3407789E+01  (-0.3671033E+01)
 number of electron      35.9999726 magnetization 
 augmentation part       14.4771098 magnetization 

 Broyden mixing:
  rms(total) = 0.75144E+01    rms(broyden)= 0.75144E+01
  rms(prec ) = 0.75166E+01
  weight for this iteration     100.00

 eigenvalues of (default mixing * dielectric matrix)
  average eigenvalue GAMMA=   1.5016
  1.5016

 Free energy of the ion-electron system (eV)
  ---------------------------------------------------
  alpha Z        PSCENC =       142.72218768
  Ewald energy   TEWEN  =     -2500.38568288
  -Hartree energ DENC   =     -1374.81138314
  -exchange      EXHF   =         0.00000000
  -V(xc)+E(xc)   XCENC  =       141.27797508
  PAW double counting   =     10880.19741512   -11239.00786098
  entropy T*S    EENTRO =        -0.00000000
  eigenvalues    EBANDS =      -105.56256095
  atomic energy  EATOM  =      4048.08011476
  Solvation  Ediel_sol  =         0.00000000
  ---------------------------------------------------
  free energy    TOTEN  =        -7.48979530 eV

  energy without entropy =       -7.48979530  energy(sigma->0) =       -7.48979530


--------------------------------------------------------------------------------------------------------




----------------------------------------- Iteration    1(   3)  ---------------------------------------


    POTLOK:  cpu time    0.0793: real time    0.0200
    SETDIJ:  cpu time    0.0234: real time    0.0059
     EDDAV:  cpu time    6.3594: real time    1.5960
       DOS:  cpu time    0.0025: real time    0.0006
    CHARGE:  cpu time    0.1175: real time    0.0330
    MIXING:  cpu time    0.0033: real time    0.0008
    --------------------------------------------
      LOOP:  cpu time    6.5915: real time    1.6582

 eigenvalue-minimisations  :  4878
 total energy-change (2. order) :-0.4645963E+00  (-0.1642339E+00)
 number of electron      35.9999729 magnetization 
 augmentation part       14.3033253 magnetization 

 Broyden mixing:
  rms(total) = 0.11997E+02    rms(broyden)= 0.11997E+02
  rms(prec ) = 0.12004E+02
  weight for this iteration     100.00

 eigenvalues of (default mixing * dielectric matrix)
  average eigenvalue GAMMA=   2.1263
  0.8321  3.4205

 Free energy of the ion-electron system (eV)
  ---------------------------------------------------
  alpha Z        PSCENC =       142.72218768
  Ewald energy   TEWEN  =     -2500.38568288
  -Hartree energ DENC   =     -1379.92700276
  -exchange      EXHF   =         0.00000000
  -V(xc)+E(xc)   XCENC  =       141.32313189
  PAW double counting   =     16926.34124434   -17294.41868884
  entropy T*S    EENTRO =        -0.00000000
  eigenvalues    EBANDS =       -91.68969576
  atomic energy  EATOM  =      4048.08011476
  Solvation  Ediel_sol  =         0.00000000
  ---------------------------------------------------
  free energy    TOTEN  =        -7.95439156 eV

  energy without entropy =       -7.95439156  energy(sigma->0) =       -7.95439156


--------------------------------------------------------------------------------------------------------




----------------------------------------- Iteration    1(   4)  ---------------------------------------


    POTLOK:  cpu time    0.0853: real time    0.0222
    SETDIJ:  cpu time    0.0223: real time    0.0056
     EDDAV:  cpu time    6.1056: real time    1.5413
       DOS:  cpu time    0.0028: real time    0.0007
    CHARGE:  cpu time    0.1309: real time    0.0328
    MIXING:  cpu time    0.0035: real time    0.0009
    --------------------------------------------
      LOOP:  cpu time    6.3566: real time    1.6054

 eigenvalue-minimisations  :  4426
 total energy-change (2. order) : 0.5090058E+00  (-0.2442270E+00)
 number of electron      35.9999725 magnetization 
 augmentation part       14.5500161 magnetization 

 Broyden mixing:
  rms(total) = 0.11968E+01    rms(broyden)= 0.11968E+01
  rms(prec ) = 0.11978E+01
  weight for this iteration     100.00

 eigenvalues of (default mixing * dielectric matrix)
  average eigenvalue GAMMA=   1.4528
  2.7096  0.8244  0.8244

 Free energy of the ion-electron system (eV)
  ---------------------------------------------------
  alpha Z        PSCENC =       142.72218768
  Ewald energy   TEWEN  =     -2500.38568288
  -Hartree energ DENC   =     -1378.78809425
  -exchange      EXHF   =         0.00000000
  -V(xc)+E(xc)   XCENC  =       141.74364451
  PAW double counting   =      4114.69693448    -4463.69732287
  entropy T*S    EENTRO =        -0.00000000
  eigenvalues    EBANDS =      -111.81716715
  atomic energy  EATOM  =      4048.08011476
  Solvation  Ediel_sol  =         0.00000000
  ---------------------------------------------------
  free energy    TOTEN  =        -7.44538571 eV

  energy without entropy =       -7.44538571  energy(sigma->0) =       -7.44538571


--------------------------------------------------------------------------------------------------------




----------------------------------------- Iteration    1(   5)  ---------------------------------------


    POTLOK:  cpu time    0.0796: real time    0.0200
    SETDIJ:  cpu time    0.0222: real time    0.0056
     EDDAV:  cpu time    5.7506: real time    1.4464
       DOS:  cpu time    0.0040: real time    0.0010
    CHARGE:  cpu time    0.1469: real time    0.0387
    MIXING:  cpu time    0.0052: real time    0.0013
    --------------------------------------------
      LOOP:  cpu time    6.0146: real time    1.5149

 eigenvalue-minimisations  :  4212
 total energy-change (2. order) :-0.3457685E-01  (-0.3733472E-01)
 number of electron      35.9999724 magnetization 
 augmentation part       14.5750952 magnetization 

 Broyden mixing:
  rms(total) = 0.18907E+00    rms(broyden)= 0.18907E+00
  rms(prec ) = 0.19186E+00
  weight for this iteration     100.00

 eigenvalues of (default mixing * dielectric matrix)
  average eigenvalue GAMMA=   1.3875
  2.5029  1.2117  0.8374  0.9979

 Free energy of the ion-electron system (eV)
  ---------------------------------------------------
  alpha Z        PSCENC =       142.72218768
  Ewald energy   TEWEN  =     -2500.38568288
  -Hartree energ DENC   =     -1377.09585616
  -exchange      EXHF   =         0.00000000
  -V(xc)+E(xc)   XCENC  =       141.65311226
  PAW double counting   =      4535.58983619    -4884.98539226
  entropy T*S    EENTRO =        -0.00000000
  eigenvalues    EBANDS =      -113.05828215
  atomic energy  EATOM  =      4048.08011476
  Solvation  Ediel_sol  =         0.00000000
  ---------------------------------------------------
  free energy    TOTEN  =        -7.47996256 eV

  energy without entropy =       -7.47996256  energy(sigma->0) =       -7.47996256


--------------------------------------------------------------------------------------------------------




----------------------------------------- Iteration    1(   6)  ---------------------------------------


    POTLOK:  cpu time    0.0727: real time    0.0207
    SETDIJ:  cpu time    0.0213: real time    0.0057
     EDDAV:  cpu time    6.3970: real time    1.6137
       DOS:  cpu time    0.0025: real time    0.0006
    CHARGE:  cpu time    0.1314: real time    0.0329
    MIXING:  cpu time    0.0037: real time    0.0009
    --------------------------------------------
      LOOP:  cpu time    6.6348: real time    1.6765

 eigenvalue-minimisations  :  4798
 total energy-change (2. order) : 0.1112023E-02  (-0.1190673E-02)
 number of electron      35.9999725 magnetization 
 augmentation part       14.5649356 magnetization 

 Broyden mixing:
  rms(total) = 0.10510E+00    rms(broyden)= 0.10510E+00
  rms(prec ) = 0.10569E+00
  weight for this iteration     100.00

 eigenvalues of (default mixing * dielectric matrix)
  average eigenvalue GAMMA=   1.4310
  2.1777  2.1777  1.0409  1.0409  0.7175

 Free energy of the ion-electron system (eV)
  ---------------------------------------------------
  alpha Z        PSCENC =       142.72218768
  Ewald energy   TEWEN  =     -2500.38568288
  -Hartree energ DENC   =     -1377.34448292
  -exchange      EXHF   =         0.00000000
  -V(xc)+E(xc)   XCENC  =       141.63357281
  PAW double counting   =      4652.91707900    -5002.84019132
  entropy T*S    EENTRO =        -0.00000000
  eigenvalues    EBANDS =      -112.26144767
  atomic energy  EATOM  =      4048.08011476
  Solvation  Ediel_sol  =         0.00000000
  ---------------------------------------------------
  free energy    TOTEN  =        -7.47885054 eV

  energy without entropy =       -7.47885054  energy(sigma->0) =       -7.47885054


--------------------------------------------------------------------------------------------------------




----------------------------------------- Iteration    1(   7)  ---------------------------------------


    POTLOK:  cpu time    0.0793: real time    0.0200
    SETDIJ:  cpu time    0.0223: real time    0.0056
     EDDAV:  cpu time    5.8919: real time    1.4881
       DOS:  cpu time    0.0007: real time    0.0007
    CHARGE:  cpu time    0.1362: real time    0.0331
    MIXING:  cpu time    0.0142: real time    0.0011
    --------------------------------------------
      LOOP:  cpu time    6.1503: real time    1.5504

 eigenvalue-minimisations  :  4332
 total energy-change (2. order) :-0.9508293E-04  (-0.2602020E-03)
 number of electron      35.9999725 magnetization 
 augmentation part       14.5648827 magnetization 

 Broyden mixing:
  rms(total) = 0.46131E-01    rms(broyden)= 0.46131E-01
  rms(prec ) = 0.46496E-01
  weight for this iteration     100.00

 eigenvalues of (default mixing * dielectric matrix)
  average eigenvalue GAMMA=   1.4446
  2.7521  2.3404  1.0545  0.8517  0.8517  0.8168

 Free energy of the ion-electron system (eV)
  ---------------------------------------------------
  alpha Z        PSCENC =       142.72218768
  Ewald energy   TEWEN  =     -2500.38568288
  -Hartree energ DENC   =     -1377.39578840
  -exchange      EXHF   =         0.00000000
  -V(xc)+E(xc)   XCENC  =       141.61974674
  PAW double counting   =      4595.21784750    -4944.98754398
  entropy T*S    EENTRO =        -0.00000000
  eigenvalues    EBANDS =      -112.34982704
  atomic energy  EATOM  =      4048.08011476
  Solvation  Ediel_sol  =         0.00000000
  ---------------------------------------------------
  free energy    TOTEN  =        -7.47894562 eV

  energy without entropy =       -7.47894562  energy(sigma->0) =       -7.47894562


--------------------------------------------------------------------------------------------------------




----------------------------------------- Iteration    1(   8)  ---------------------------------------


    POTLOK:  cpu time    0.0571: real time    0.0200
    SETDIJ:  cpu time    0.0401: real time    0.0056
     EDDAV:  cpu time    4.0094: real time    1.0113
       DOS:  cpu time    0.0025: real time    0.0006
    --------------------------------------------
      LOOP:  cpu time    4.1195: real time    1.0393

 eigenvalue-minimisations  :  2396
 total energy-change (2. order) : 0.6858839E-05  (-0.1726731E-04)
 number of electron      35.9999725 magnetization 
 augmentation part       14.5648827 magnetization 

 Free energy of the ion-electron system (eV)
  ---------------------------------------------------
  alpha Z        PSCENC =       142.72218768
  Ewald energy   TEWEN  =     -2500.38568288
  -Hartree energ DENC   =     -1377.46325923
  -exchange      EXHF   =         0.00000000
  -V(xc)+E(xc)   XCENC  =       141.62302715
  PAW double counting   =      4550.68524019    -4900.34538724
  entropy T*S    EENTRO =        -0.00000000
  eigenvalues    EBANDS =      -112.39517919
  atomic energy  EATOM  =      4048.08011476
  Solvation  Ediel_sol  =         0.00000000
  ---------------------------------------------------
  free energy    TOTEN  =        -7.47893876 eV

  energy without entropy =       -7.47893876  energy(sigma->0) =       -7.47893876


--------------------------------------------------------------------------------------------------------




 average (electrostatic) potential at core
  the test charge radii are     0.9521  0.9698
  (the norm of the test charge is              1.0000)
       1 -36.1133       2 -36.1133       3 -87.5550       4 -87.5550
 
 
 
 E-fermi :   2.6017     XC(G=0):  -9.7091     alpha+bet : -8.0241


 k-point     1 :       0.0000    0.0000    0.0000
  band No.  band energies     occupation 
      1     -10.6762      2.00000
      2      -9.6655      2.00000
      3      -4.3004      2.00000
      4      -4.2894      2.00000
      5      -4.2651      2.00000
      6      -4.2122      2.00000
      7      -4.1942      2.00000
      8      -3.9010      2.00000
      9      -3.8928      2.00000
     10      -3.8264      2.00000
     11      -3.8123      2.00000
     12      -3.6419      2.00000
     13      -3.1049      2.00000
     14       1.4942      2.00000
     15       1.5910      2.00000
     16       2.3970      2.00000
     17       2.4305      2.00000
     18       2.5512      2.00000
     19       4.2621      0.00000
     20       5.0876      0.00000
     21       8.3079      0.00000
     22       8.3321      0.00000

 k-point     2 :       0.0654    0.0378    0.0000
  band No.  band energies     occupation 
      1     -10.6171      2.00000
      2      -9.6315      2.00000
      3      -4.2996      2.00000
      4      -4.2823      2.00000
      5      -4.2548      2.00000
      6      -4.2072      2.00000
      7      -4.1792      2.00000
      8      -3.9072      2.00000
      9      -3.8950      2.00000
     10      -3.8542      2.00000
     11      -3.8107      2.00000
     12      -3.6171      2.00000
     13      -3.0247      2.00000
     14       1.0111      2.00000
     15       1.4124      2.00000
     16       1.8747      2.00000
     17       2.3212      2.00000
     18       2.4607      2.00000
     19       4.7959      0.00000
     20       5.5464      0.00000
     21       8.0526      0.00000
     22       8.4757      0.00000

 k-point     3 :       0.1308    0.0755    0.0000
  band No.  band energies     occupation 
      1     -10.4485      2.00000
      2      -9.5409      2.00000
      3      -4.3007      2.00000
      4      -4.2545      2.00000
      5      -4.2328      2.00000
      6      -4.1879      2.00000
      7      -4.1361      2.00000
      8      -3.9228      2.00000
      9      -3.9040      2.00000
     10      -3.8847      2.00000
     11      -3.8061      2.00000
     12      -3.5787      2.00000
     13      -2.8055      2.00000
     14       0.0810      2.00000
     15       0.6885      2.00000
     16       1.1888      2.00000
     17       2.0940      2.00000
     18       2.1875      2.00000
     19       5.6282      0.00000
     20       6.3032      0.00000
     21       7.7082      0.00000
     22       8.6181      0.00000

 k-point     4 :       0.0654    0.1133    0.0000
  band No.  band energies     occupation 
      1     -10.5032      2.00000
      2      -9.5692      2.00000
      3      -4.3013      2.00000
      4      -4.2634      2.00000
      5      -4.2386      2.00000
      6      -4.1950      2.00000
      7      -4.1501      2.00000
      8      -3.9181      2.00000
      9      -3.9005      2.00000
     10      -3.8799      2.00000
     11      -3.8076      2.00000
     12      -3.5891      2.00000
     13      -2.8745      2.00000
     14       0.3364      2.00000
     15       0.9349      2.00000
     16       1.3471      2.00000
     17       2.1697      2.00000
     18       2.2779      2.00000
     19       5.4105      0.00000
     20       6.1207      0.00000
     21       7.7659      0.00000
     22       8.6410      0.00000

 k-point     5 :       0.1308    0.1510    0.0000
  band No.  band energies     occupation 
      1     -10.2786      2.00000
      2      -9.4606      2.00000
      3      -4.2876      2.00000
      4      -4.2268      2.00000
      5      -4.2246      2.00000
      6      -4.1629      2.00000
      7      -4.0927      2.00000
      8      -3.9333      2.00000
      9      -3.9129      2.00000
     10      -3.8889      2.00000
     11      -3.8012      2.00000
     12      -3.5469      2.00000
     13      -2.6128      2.00000
     14      -0.4917      2.00000
     15      -0.0135      2.00000
     16       0.7473      2.00000
     17       1.8522      2.00000
     18       1.8636      2.00000
     19       6.1863      0.00000
     20       6.8024      0.00000
     21       7.6095      0.00000
     22       8.2371      0.00000

 k-point     6 :      -0.0654    0.0378    0.0000
  band No.  band energies     occupation 
      1     -10.6527      2.00000
      2      -9.6519      2.00000
      3      -4.2976      2.00000
      4      -4.2857      2.00000
      5      -4.2646      2.00000
      6      -4.2070      2.00000
      7      -4.1914      2.00000
      8      -3.9018      2.00000
      9      -3.8950      2.00000
     10      -3.8319      2.00000
     11      -3.8198      2.00000
     12      -3.6298      2.00000
     13      -3.0729      2.00000
     14       1.3457      2.00000
     15       1.4636      2.00000
     16       2.2378      2.00000
     17       2.3663      2.00000
     18       2.4306      2.00000
     19       4.5242      0.00000
     20       5.2915      0.00000
     21       8.1845      0.00000
     22       8.3972      0.00000

 k-point     7 :       0.1308    0.2265    0.0000
  band No.  band energies     occupation 
      1     -10.0671      2.00000
      2      -9.3799      2.00000
      3      -4.2629      2.00000
      4      -4.2164      2.00000
      5      -4.1946      2.00000
      6      -4.1181      2.00000
      7      -4.0438      2.00000
      8      -3.9471      2.00000
      9      -3.9127      2.00000
     10      -3.8825      2.00000
     11      -3.7932      2.00000
     12      -3.4975      2.00000
     13      -2.4624      2.00000
     14      -1.0080      2.00000
     15      -0.6127      2.00000
     16       0.2365      2.00000
     17       1.5098      2.00000
     18       1.5357      2.00000
     19       6.6285      0.00000
     20       6.7916      0.00000
     21       7.6825      0.00000
     22       8.1905      0.00000

 k-point     8 :       0.0000    0.0000    0.0399
  band No.  band energies     occupation 
      1     -10.6729      2.00000
      2      -9.6704      2.00000
      3      -4.3006      2.00000
      4      -4.2892      2.00000
      5      -4.2650      2.00000
      6      -4.2126      2.00000
      7      -4.1946      2.00000
      8      -3.9006      2.00000
      9      -3.8924      2.00000
     10      -3.8266      2.00000
     11      -3.8125      2.00000
     12      -3.6709      2.00000
     13      -3.0621      2.00000
     14       1.4975      2.00000
     15       1.5944      2.00000
     16       2.3472      2.00000
     17       2.4263      2.00000
     18       2.5469      2.00000
     19       4.3072      0.00000
     20       5.0917      0.00000
     21       8.3104      0.00000
     22       8.6263      0.00000

 k-point     9 :       0.0654    0.0378    0.0399
  band No.  band energies     occupation 
      1     -10.6138      2.00000
      2      -9.6362      2.00000
      3      -4.3000      2.00000
      4      -4.2820      2.00000
      5      -4.2546      2.00000
      6      -4.2076      2.00000
      7      -4.1797      2.00000
      8      -3.9067      2.00000
      9      -3.8947      2.00000
     10      -3.8566      2.00000
     11      -3.8109      2.00000
     12      -3.6402      2.00000
     13      -2.9857      2.00000
     14       1.0150      2.00000
     15       1.4149      2.00000
     16       1.8502      2.00000
     17       2.3092      2.00000
     18       2.4562      2.00000
     19       4.8247      0.00000
     20       5.5504      0.00000
     21       8.0533      0.00000
     22       8.4777      0.00000

 k-point    10 :       0.1308    0.0755    0.0399
  band No.  band energies     occupation 
      1     -10.4454      2.00000
      2      -9.5451      2.00000
      3      -4.3010      2.00000
      4      -4.2544      2.00000
      5      -4.2326      2.00000
      6      -4.1884      2.00000
      7      -4.1366      2.00000
      8      -3.9224      2.00000
      9      -3.9063      2.00000
     10      -3.8853      2.00000
     11      -3.8064      2.00000
     12      -3.5940      2.00000
     13      -2.7752      2.00000
     14       0.0861      2.00000
     15       0.6810      2.00000
     16       1.1840      2.00000
     17       2.0872      2.00000
     18       2.1819      2.00000
     19       5.6387      0.00000
     20       6.3071      0.00000
     21       7.7129      0.00000
     22       8.6172      0.00000

 k-point    11 :       0.0654    0.1133    0.0399
  band No.  band energies     occupation 
      1     -10.5000      2.00000
      2      -9.5736      2.00000
      3      -4.3017      2.00000
      4      -4.2632      2.00000
      5      -4.2384      2.00000
      6      -4.1955      2.00000
      7      -4.1505      2.00000
      8      -3.9177      2.00000
      9      -3.9018      2.00000
     10      -3.8815      2.00000
     11      -3.8078      2.00000
     12      -3.6063      2.00000
     13      -2.8417      2.00000
     14       0.3412      2.00000
     15       0.9292      2.00000
     16       1.3392      2.00000
     17       2.1610      2.00000
     18       2.2727      2.00000
     19       5.4262      0.00000
     20       6.1246      0.00000
     21       7.7691      0.00000
     22       8.6426      0.00000

 k-point    12 :       0.1308    0.1510    0.0399
  band No.  band energies     occupation 
      1     -10.2758      2.00000
      2      -9.4642      2.00000
      3      -4.2881      2.00000
      4      -4.2268      2.00000
      5      -4.2243      2.00000
      6      -4.1633      2.00000
      7      -4.0932      2.00000
      8      -3.9325      2.00000
      9      -3.9173      2.00000
     10      -3.8874      2.00000
     11      -3.8015      2.00000
     12      -3.5583      2.00000
     13      -2.5896      2.00000
     14      -0.4841      2.00000
     15      -0.0209      2.00000
     16       0.7449      2.00000
     17       1.8506      2.00000
     18       1.8580      2.00000
     19       6.1821      0.00000
     20       6.8058      0.00000
     21       7.6191      0.00000
     22       8.2394      0.00000

 k-point    13 :      -0.0654    0.0378    0.0399
  band No.  band energies     occupation 
      1     -10.6494      2.00000
      2      -9.6567      2.00000
      3      -4.2979      2.00000
      4      -4.2855      2.00000
      5      -4.2644      2.00000
      6      -4.2074      2.00000
      7      -4.1918      2.00000
      8      -3.9014      2.00000
      9      -3.8945      2.00000
     10      -3.8333      2.00000
     11      -3.8204      2.00000
     12      -3.6557      2.00000
     13      -3.0316      2.00000
     14       1.3493      2.00000
     15       1.4670      2.00000
     16       2.1879      2.00000
     17       2.3661      2.00000
     18       2.4321      2.00000
     19       4.5596      0.00000
     20       5.2957      0.00000
     21       8.1857      0.00000
     22       8.4167      0.00000

 k-point    14 :       0.1308    0.2265    0.0399
  band No.  band energies     occupation 
      1     -10.0646      2.00000
      2      -9.3828      2.00000
      3      -4.2633      2.00000
      4      -4.2164      2.00000
      5      -4.1946      2.00000
      6      -4.1185      2.00000
      7      -4.0444      2.00000
      8      -3.9474      2.00000
      9      -3.9161      2.00000
     10      -3.8804      2.00000
     11      -3.7935      2.00000
     12      -3.5057      2.00000
     13      -2.4494      2.00000
     14      -0.9974      2.00000
     15      -0.6188      2.00000
     16       0.2371      2.00000
     17       1.5102      2.00000
     18       1.5328      2.00000
     19       6.5900      0.00000
     20       6.8154      0.00000
     21       7.6980      0.00000
     22       8.1892      0.00000

 k-point    15 :       0.0000    0.0000    0.0799
  band No.  band energies     occupation 
      1     -10.6630      2.00000
      2      -9.6848      2.00000
      3      -4.3013      2.00000
      4      -4.2887      2.00000
      5      -4.2645      2.00000
      6      -4.2139      2.00000
      7      -4.1958      2.00000
      8      -3.8994      2.00000
      9      -3.8913      2.00000
     10      -3.8272      2.00000
     11      -3.8131      2.00000
     12      -3.7386      2.00000
     13      -2.9528      2.00000
     14       1.5074      2.00000
     15       1.6045      2.00000
     16       2.2105      2.00000
     17       2.4141      2.00000
     18       2.5343      2.00000
     19       4.4290      0.00000
     20       5.1043      0.00000
     21       8.3177      0.00000
     22       8.5861      0.00000

 k-point    16 :       0.0654    0.0378    0.0799
  band No.  band energies     occupation 
      1     -10.6041      2.00000
      2      -9.6501      2.00000
      3      -4.3012      2.00000
      4      -4.2811      2.00000
      5      -4.2541      2.00000
      6      -4.2091      2.00000
      7      -4.1809      2.00000
      8      -3.9054      2.00000
      9      -3.8943      2.00000
     10      -3.8650      2.00000
     11      -3.8117      2.00000
     12      -3.6934      2.00000
     13      -2.8836      2.00000
     14       1.0266      2.00000
     15       1.4215      2.00000
     16       1.7781      2.00000
     17       2.2769      2.00000
     18       2.4425      2.00000
     19       4.9067      0.00000
     20       5.5626      0.00000
     21       8.0546      0.00000
     22       8.4902      0.00000

 k-point    17 :       0.1308    0.0755    0.0799
  band No.  band energies     occupation 
      1     -10.4362      2.00000
      2      -9.5575      2.00000
      3      -4.3021      2.00000
      4      -4.2538      2.00000
      5      -4.2319      2.00000
      6      -4.1899      2.00000
      7      -4.1379      2.00000
      8      -3.9227      2.00000
      9      -3.9133      2.00000
     10      -3.8859      2.00000
     11      -3.8072      2.00000
     12      -3.6322      2.00000
     13      -2.6918      2.00000
     14       0.1018      2.00000
     15       0.6573      2.00000
     16       1.1724      2.00000
     17       2.0661      2.00000
     18       2.1657      2.00000
     19       5.6702      0.00000
     20       6.3194      0.00000
     21       7.7261      0.00000
     22       8.6132      0.00000

 k-point    18 :       0.0654    0.1133    0.0799
  band No.  band energies     occupation 
      1     -10.4907      2.00000
      2      -9.5865      2.00000
      3      -4.3028      2.00000
      4      -4.2625      2.00000
      5      -4.2378      2.00000
      6      -4.1971      2.00000
      7      -4.1518      2.00000
      8      -3.9169      2.00000
      9      -3.9075      2.00000
     10      -3.8847      2.00000
     11      -3.8086      2.00000
     12      -3.6482      2.00000
     13      -2.7525      2.00000
     14       0.3555      2.00000
     15       0.9091      2.00000
     16       1.3190      2.00000
     17       2.1347      2.00000
     18       2.2571      2.00000
     19       5.4724      0.00000
     20       6.1363      0.00000
     21       7.7779      0.00000
     22       8.6460      0.00000

 k-point    19 :       0.1308    0.1510    0.0799
  band No.  band energies     occupation 
      1     -10.2672      2.00000
      2      -9.4750      2.00000
      3      -4.2893      2.00000
      4      -4.2266      2.00000
      5      -4.2237      2.00000
      6      -4.1646      2.00000
      7      -4.0947      2.00000
      8      -3.9318      2.00000
      9      -3.9278      2.00000
     10      -3.8843      2.00000
     11      -3.8024      2.00000
     12      -3.5881      2.00000
     13      -2.5242      2.00000
     14      -0.4613      2.00000
     15      -0.0434      2.00000
     16       0.7389      2.00000
     17       1.8367      2.00000
     18       1.8487      2.00000
     19       6.1718      0.00000
     20       6.8155      0.00000
     21       7.6452      0.00000
     22       8.2447      0.00000

 k-point    20 :      -0.0654    0.0378    0.0799
  band No.  band energies     occupation 
      1     -10.6396      2.00000
      2      -9.6710      2.00000
      3      -4.2989      2.00000
      4      -4.2848      2.00000
      5      -4.2637      2.00000
      6      -4.2087      2.00000
      7      -4.1930      2.00000
      8      -3.9002      2.00000
      9      -3.8933      2.00000
     10      -3.8393      2.00000
     11      -3.8221      2.00000
     12      -3.7145      2.00000
     13      -2.9252      2.00000
     14       1.3600      2.00000
     15       1.4772      2.00000
     16       2.0617      2.00000
     17       2.3569      2.00000
     18       2.4291      2.00000
     19       4.6587      0.00000
     20       5.3080      0.00000
     21       8.1879      0.00000
     22       8.4089      0.00000

 k-point    21 :       0.1308    0.2265    0.0799
  band No.  band energies     occupation 
      1     -10.0571      2.00000
      2      -9.3913      2.00000
      3      -4.2646      2.00000
      4      -4.2162      2.00000
      5      -4.1945      2.00000
      6      -4.1194      2.00000
      7      -4.0462      2.00000
      8      -3.9504      2.00000
      9      -3.9222      2.00000
     10      -3.8759      2.00000
     11      -3.7943      2.00000
     12      -3.5281      2.00000
     13      -2.4126      2.00000
     14      -0.9677      2.00000
     15      -0.6352      2.00000
     16       0.2401      2.00000
     17       1.4967      2.00000
     18       1.5371      2.00000
     19       6.5081      0.00000
     20       6.8582      0.00000
     21       7.7394      0.00000
     22       8.1853      0.00000

 k-point    22 :       0.0000    0.0000    0.5000
  band No.  band energies     occupation 
      1     -10.2187      2.00000
      2     -10.2187      2.00000
      3      -4.2702      2.00000
      4      -4.2702      2.00000
      5      -4.2587      2.00000
      6      -4.2587      2.00000
      7      -4.2366      2.00000
      8      -4.2366      2.00000
      9      -3.8574      2.00000
     10      -3.8574      2.00000
     11      -3.8461      2.00000
     12      -3.8461      2.00000
     13      -0.5951      2.00000
     14      -0.5951      2.00000
     15       1.9371      2.00000
     16       1.9371      2.00000
     17       2.0437      2.00000
     18       2.0437      2.00000
     19       5.5949      0.00000
     20       5.5949      0.00000
     21       8.8021      0.00000
     22       8.8021      0.00000

 k-point    23 :       0.0000    0.0312    0.5000
  band No.  band energies     occupation 
      1     -10.2126      2.00000
      2     -10.2126      2.00000
      3      -4.2730      2.00000
      4      -4.2730      2.00000
      5      -4.2550      2.00000
      6      -4.2550      2.00000
      7      -4.2350      2.00000
      8      -4.2350      2.00000
      9      -3.8572      2.00000
     10      -3.8572      2.00000
     11      -3.8460      2.00000
     12      -3.8460      2.00000
     13      -0.5963      2.00000
     14      -0.5963      2.00000
     15       1.8907      2.00000
     16       1.8907      2.00000
     17       2.0215      2.00000
     18       2.0215      2.00000
     19       5.6541      0.00000
     20       5.6541      0.00000
     21       8.6328      0.00000
     22       8.6328      0.00000

 k-point    24 :       0.0000    0.0625    0.5000
  band No.  band energies     occupation 
      1     -10.1947      2.00000
      2     -10.1947      2.00000
      3      -4.2780      2.00000
      4      -4.2780      2.00000
      5      -4.2476      2.00000
      6      -4.2476      2.00000
      7      -4.2303      2.00000
      8      -4.2303      2.00000
      9      -3.8569      2.00000
     10      -3.8569      2.00000
     11      -3.8459      2.00000
     12      -3.8459      2.00000
     13      -0.6013      2.00000
     14      -0.6013      2.00000
     15       1.7499      2.00000
     16       1.7499      2.00000
     17       1.9704      2.00000
     18       1.9704      2.00000
     19       5.8164      0.00000
     20       5.8164      0.00000
     21       8.3894      0.00000
     22       8.3894      0.00000

 k-point    25 :       0.0000    0.0938    0.5000
  band No.  band energies     occupation 
      1     -10.1652      2.00000
      2     -10.1652      2.00000
      3      -4.2828      2.00000
      4      -4.2828      2.00000
      5      -4.2382      2.00000
      6      -4.2382      2.00000
      7      -4.2229      2.00000
      8      -4.2229      2.00000
      9      -3.8562      2.00000
     10      -3.8562      2.00000
     11      -3.8457      2.00000
     12      -3.8457      2.00000
     13      -0.6143      2.00000
     14      -0.6143      2.00000
     15       1.5400      2.00000
     16       1.5400      2.00000
     17       1.8990      2.00000
     18       1.8990      2.00000
     19       6.0427      0.00000
     20       6.0427      0.00000
     21       8.1523      0.00000
     22       8.1523      0.00000

 k-point    26 :       0.0000    0.1250    0.5000
  band No.  band energies     occupation 
      1     -10.1250      2.00000
      2     -10.1250      2.00000
      3      -4.2870      2.00000
      4      -4.2870      2.00000
      5      -4.2272      2.00000
      6      -4.2272      2.00000
      7      -4.2129      2.00000
      8      -4.2129      2.00000
      9      -3.8550      2.00000
     10      -3.8550      2.00000
     11      -3.8452      2.00000
     12      -3.8452      2.00000
     13      -0.6432      2.00000
     14      -0.6432      2.00000
     15       1.2998      2.00000
     16       1.2998      2.00000
     17       1.8093      2.00000
     18       1.8093      2.00000
     19       6.2789      0.00000
     20       6.2789      0.00000
     21       7.9522      0.00000
     22       7.9522      0.00000

 k-point    27 :       0.0000    0.1562    0.5000
  band No.  band energies     occupation 
      1     -10.0750      2.00000
      2     -10.0750      2.00000
      3      -4.2904      2.00000
      4      -4.2904      2.00000
      5      -4.2144      2.00000
      6      -4.2144      2.00000
      7      -4.2008      2.00000
      8      -4.2008      2.00000
      9      -3.8532      2.00000
     10      -3.8532      2.00000
     11      -3.8441      2.00000
     12      -3.8441      2.00000
     13      -0.7000      2.00000
     14      -0.7000      2.00000
     15       1.0652      2.00000
     16       1.0652      2.00000
     17       1.7050      2.00000
     18       1.7050      2.00000
     19       6.4562      0.00000
     20       6.4562      0.00000
     21       7.8317      0.00000
     22       7.8317      0.00000

 k-point    28 :       0.0000    0.1875    0.5000
  band No.  band energies     occupation 
      1     -10.0168      2.00000
      2     -10.0168      2.00000
      3      -4.2928      2.00000
      4      -4.2928      2.00000
      5      -4.1999      2.00000
      6      -4.1999      2.00000
      7      -4.1866      2.00000
      8      -4.1866      2.00000
      9      -3.8506      2.00000
     10      -3.8506      2.00000
     11      -3.8422      2.00000
     12      -3.8422      2.00000
     13      -0.7993      2.00000
     14      -0.7993      2.00000
     15       0.8661      2.00000
     16       0.8661      2.00000
     17       1.5912      2.00000
     18       1.5912      2.00000
     19       6.5100      0.00000
     20       6.5100      0.00000
     21       7.8186      0.00000
     22       7.8186      0.00000

 k-point    29 :       0.0000    0.2188    0.5000
  band No.  band energies     occupation 
      1      -9.9520      2.00000
      2      -9.9520      2.00000
      3      -4.2941      2.00000
      4      -4.2941      2.00000
      5      -4.1833      2.00000
      6      -4.1833      2.00000
      7      -4.1710      2.00000
      8      -4.1710      2.00000
      9      -3.8473      2.00000
     10      -3.8473      2.00000
     11      -3.8389      2.00000
     12      -3.8389      2.00000
     13      -0.9515      2.00000
     14      -0.9515      2.00000
     15       0.7232      2.00000
     16       0.7232      2.00000
     17       1.4727      2.00000
     18       1.4727      2.00000
     19       6.4431      0.00000
     20       6.4431      0.00000
     21       7.8680      0.00000
     22       7.8680      0.00000

 k-point    30 :       0.0000    0.2500    0.5000
  band No.  band energies     occupation 
      1      -9.8827      2.00000
      2      -9.8827      2.00000
      3      -4.2944      2.00000
      4      -4.2944      2.00000
      5      -4.1649      2.00000
      6      -4.1649      2.00000
      7      -4.1538      2.00000
      8      -4.1538      2.00000
      9      -3.8435      2.00000
     10      -3.8435      2.00000
     11      -3.8331      2.00000
     12      -3.8331      2.00000
     13      -1.1543      2.00000
     14      -1.1543      2.00000
     15       0.6410      2.00000
     16       0.6410      2.00000
     17       1.3544      2.00000
     18       1.3544      2.00000
     19       6.3120      0.00000
     20       6.3120      0.00000
     21       7.8918      0.00000
     22       7.8918      0.00000

 k-point    31 :       0.0000    0.2812    0.5000
  band No.  band energies     occupation 
      1      -9.8112      2.00000
      2      -9.8112      2.00000
      3      -4.2937      2.00000
      4      -4.2937      2.00000
      5      -4.1463      2.00000
      6      -4.1463      2.00000
      7      -4.1338      2.00000
      8      -4.1338      2.00000
      9      -3.8393      2.00000
     10      -3.8393      2.00000
     11      -3.8240      2.00000
     12      -3.8240      2.00000
     13      -1.3928      2.00000
     14      -1.3928      2.00000
     15       0.6089      2.00000
     16       0.6089      2.00000
     17       1.2402      2.00000
     18       1.2402      2.00000
     19       6.1611      0.00000
     20       6.1611      0.00000
     21       7.8513      0.00000
     22       7.8513      0.00000

 k-point    32 :       0.0000    0.3125    0.5000
  band No.  band energies     occupation 
      1      -9.7404      2.00000
      2      -9.7404      2.00000
      3      -4.2924      2.00000
      4      -4.2924      2.00000
      5      -4.1302      2.00000
      6      -4.1302      2.00000
      7      -4.1091      2.00000
      8      -4.1091      2.00000
      9      -3.8346      2.00000
     10      -3.8346      2.00000
     11      -3.8101      2.00000
     12      -3.8101      2.00000
     13      -1.6481      2.00000
     14      -1.6481      2.00000
     15       0.6115      2.00000
     16       0.6115      2.00000
     17       1.1339      2.00000
     18       1.1339      2.00000
     19       6.0129      0.00000
     20       6.0129      0.00000
     21       7.7602      0.00000
     22       7.7602      0.00000

 k-point    33 :       0.0000    0.3438    0.5000
  band No.  band energies     occupation 
      1      -9.6731      2.00000
      2      -9.6731      2.00000
      3      -4.2906      2.00000
      4      -4.2906      2.00000
      5      -4.1169      2.00000
      6      -4.1169      2.00000
      7      -4.0812      2.00000
      8      -4.0812      2.00000
      9      -3.8295      2.00000
     10      -3.8295      2.00000
     11      -3.7899      2.00000
     12      -3.7899      2.00000
     13      -1.9037      2.00000
     14      -1.9037      2.00000
     15       0.6340      2.00000
     16       0.6340      2.00000
     17       1.0387      2.00000
     18       1.0387      2.00000
     19       5.8784      0.00000
     20       5.8784      0.00000
     21       7.6442      0.00000
     22       7.6442      0.00000

 k-point    34 :       0.0000    0.3750    0.5000
  band No.  band energies     occupation 
      1      -9.6125      2.00000
      2      -9.6125      2.00000
      3      -4.2888      2.00000
      4      -4.2888      2.00000
      5      -4.1060      2.00000
      6      -4.1060      2.00000
      7      -4.0531      2.00000
      8      -4.0531      2.00000
      9      -3.8242      2.00000
     10      -3.8242      2.00000
     11      -3.7611      2.00000
     12      -3.7611      2.00000
     13      -2.1459      2.00000
     14      -2.1459      2.00000
     15       0.6657      2.00000
     16       0.6657      2.00000
     17       0.9575      2.00000
     18       0.9575      2.00000
     19       5.7632      0.00000
     20       5.7632      0.00000
     21       7.5259      0.00000
     22       7.5259      0.00000

 k-point    35 :       0.0000    0.4062    0.5000
  band No.  band energies     occupation 
      1      -9.5615      2.00000
      2      -9.5615      2.00000
      3      -4.2871      2.00000
      4      -4.2871      2.00000
      5      -4.0975      2.00000
      6      -4.0975      2.00000
      7      -4.0283      2.00000
      8      -4.0283      2.00000
      9      -3.8193      2.00000
[...]
     18       2.1378      2.00000
     19       5.5178      0.00000
     20       5.6304      0.00000
     21       8.6357      0.00000
     22       8.6755      0.00000

 k-point    70 :       0.0000    0.0000    0.5000
  band No.  band energies     occupation 
      1     -10.2187      2.00000
      2     -10.2187      2.00000
      3      -4.2702      2.00000
      4      -4.2702      2.00000
      5      -4.2587      2.00000
      6      -4.2587      2.00000
      7      -4.2366      2.00000
      8      -4.2366      2.00000
      9      -3.8574      2.00000
     10      -3.8574      2.00000
     11      -3.8461      2.00000
     12      -3.8461      2.00000
     13      -0.5951      2.00000
     14      -0.5951      2.00000
     15       1.9371      2.00000
     16       1.9371      2.00000
     17       2.0437      2.00000
     18       2.0437      2.00000
     19       5.5949      0.00000
     20       5.5949      0.00000
     21       8.8021      0.00000
     22       8.8021      0.00000

 k-point    71 :      -0.0303    0.0303    0.5000
  band No.  band energies     occupation 
      1     -10.2130      2.00000
      2     -10.2130      2.00000
      3      -4.2711      2.00000
      4      -4.2711      2.00000
      5      -4.2571      2.00000
      6      -4.2571      2.00000
      7      -4.2350      2.00000
      8      -4.2350      2.00000
      9      -3.8573      2.00000
     10      -3.8573      2.00000
     11      -3.8459      2.00000
     12      -3.8459      2.00000
     13      -0.5963      2.00000
     14      -0.5963      2.00000
     15       1.9238      2.00000
     16       1.9238      2.00000
     17       1.9916      2.00000
     18       1.9916      2.00000
     19       5.6513      0.00000
     20       5.6513      0.00000
     21       8.6332      0.00000
     22       8.6332      0.00000

 k-point    72 :      -0.0606    0.0606    0.5000
  band No.  band energies     occupation 
      1     -10.1962      2.00000
      2     -10.1962      2.00000
      3      -4.2734      2.00000
      4      -4.2734      2.00000
      5      -4.2525      2.00000
      6      -4.2525      2.00000
      7      -4.2304      2.00000
      8      -4.2304      2.00000
      9      -3.8572      2.00000
     10      -3.8572      2.00000
     11      -3.8456      2.00000
     12      -3.8456      2.00000
     13      -0.6008      2.00000
     14      -0.6008      2.00000
     15       1.8469      2.00000
     16       1.8469      2.00000
     17       1.8849      2.00000
     18       1.8849      2.00000
     19       5.8059      0.00000
     20       5.8059      0.00000
     21       8.3992      0.00000
     22       8.3992      0.00000

 k-point    73 :      -0.0909    0.0909    0.5000
  band No.  band energies     occupation 
      1     -10.1685      2.00000
      2     -10.1685      2.00000
      3      -4.2764      2.00000
      4      -4.2764      2.00000
      5      -4.2451      2.00000
      6      -4.2451      2.00000
      7      -4.2234      2.00000
      8      -4.2234      2.00000
      9      -3.8569      2.00000
     10      -3.8569      2.00000
     11      -3.8448      2.00000
     12      -3.8448      2.00000
     13      -0.6124      2.00000
     14      -0.6124      2.00000
     15       1.6391      2.00000
     16       1.6391      2.00000
     17       1.8225      2.00000
     18       1.8225      2.00000
     19       6.0227      0.00000
     20       6.0227      0.00000
     21       8.1700      0.00000
     22       8.1700      0.00000

 k-point    74 :      -0.1212    0.1212    0.5000
  band No.  band energies     occupation 
      1     -10.1308      2.00000
      2     -10.1308      2.00000
      3      -4.2794      2.00000
      4      -4.2794      2.00000
      5      -4.2351      2.00000
      6      -4.2351      2.00000
      7      -4.2145      2.00000
      8      -4.2145      2.00000
      9      -3.8564      2.00000
     10      -3.8564      2.00000
     11      -3.8436      2.00000
     12      -3.8436      2.00000
     13      -0.6377      2.00000
     14      -0.6377      2.00000
     15       1.4015      2.00000
     16       1.4015      2.00000
     17       1.7405      2.00000
     18       1.7405      2.00000
     19       6.2516      0.00000
     20       6.2516      0.00000
     21       7.9737      0.00000
     22       7.9737      0.00000

 k-point    75 :      -0.1515    0.1515    0.5000
  band No.  band energies     occupation 
      1     -10.0838      2.00000
      2     -10.0838      2.00000
      3      -4.2821      2.00000
      4      -4.2821      2.00000
      5      -4.2229      2.00000
      6      -4.2229      2.00000
      7      -4.2036      2.00000
      8      -4.2036      2.00000
      9      -3.8556      2.00000
     10      -3.8556      2.00000
     11      -3.8417      2.00000
     12      -3.8417      2.00000
     13      -0.6868      2.00000
     14      -0.6868      2.00000
     15       1.1660      2.00000
     16       1.1660      2.00000
     17       1.6436      2.00000
     18       1.6436      2.00000
     19       6.4311      0.00000
     20       6.4311      0.00000
     21       7.8480      0.00000
     22       7.8480      0.00000

 k-point    76 :      -0.1818    0.1818    0.5000
  band No.  band energies     occupation 
      1     -10.0288      2.00000
      2     -10.0288      2.00000
      3      -4.2841      2.00000
      4      -4.2841      2.00000
      5      -4.2090      2.00000
      6      -4.2090      2.00000
      7      -4.1904      2.00000
      8      -4.1904      2.00000
      9      -3.8542      2.00000
     10      -3.8542      2.00000
     11      -3.8388      2.00000
     12      -3.8388      2.00000
     13      -0.7725      2.00000
     14      -0.7725      2.00000
     15       0.9595      2.00000
     16       0.9595      2.00000
     17       1.5363      2.00000
     18       1.5363      2.00000
     19       6.5002      0.00000
     20       6.5002      0.00000
     21       7.8201      0.00000
     22       7.8201      0.00000

 k-point    77 :      -0.2121    0.2121    0.5000
  band No.  band energies     occupation 
      1      -9.9673      2.00000
      2      -9.9673      2.00000
      3      -4.2854      2.00000
      4      -4.2854      2.00000
      5      -4.1941      2.00000
      6      -4.1941      2.00000
      7      -4.1745      2.00000
      8      -4.1745      2.00000
      9      -3.8522      2.00000
     10      -3.8522      2.00000
     11      -3.8346      2.00000
     12      -3.8346      2.00000
     13      -0.9056      2.00000
     14      -0.9056      2.00000
     15       0.8027      2.00000
     16       0.8027      2.00000
     17       1.4237      2.00000
     18       1.4237      2.00000
     19       6.4523      0.00000
     20       6.4523      0.00000
     21       7.8588      0.00000
     22       7.8588      0.00000

 k-point    78 :      -0.2424    0.2424    0.5000
  band No.  band energies     occupation 
      1      -9.9012      2.00000
      2      -9.9012      2.00000
      3      -4.2859      2.00000
      4      -4.2859      2.00000
      5      -4.1788      2.00000
      6      -4.1788      2.00000
      7      -4.1555      2.00000
      8      -4.1555      2.00000
      9      -3.8494      2.00000
     10      -3.8494      2.00000
     11      -3.8285      2.00000
     12      -3.8285      2.00000
     13      -1.0873      2.00000
     14      -1.0873      2.00000
     15       0.7034      2.00000
     16       0.7034      2.00000
     17       1.3099      2.00000
     18       1.3099      2.00000
     19       6.3347      0.00000
     20       6.3347      0.00000
     21       7.8849      0.00000
     22       7.8849      0.00000

 k-point    79 :      -0.2727    0.2727    0.5000
  band No.  band energies     occupation 
      1      -9.8326      2.00000
      2      -9.8326      2.00000
      3      -4.2857      2.00000
      4      -4.2857      2.00000
      5      -4.1637      2.00000
      6      -4.1637      2.00000
      7      -4.1331      2.00000
      8      -4.1331      2.00000
      9      -3.8458      2.00000
     10      -3.8458      2.00000
     11      -3.8199      2.00000
     12      -3.8199      2.00000
     13      -1.3072      2.00000
     14      -1.3072      2.00000
     15       0.6554      2.00000
     16       0.6554      2.00000
     17       1.1990      2.00000
     18       1.1990      2.00000
     19       6.1921      0.00000
     20       6.1921      0.00000
     21       7.8545      0.00000
     22       7.8545      0.00000

 k-point    80 :      -0.3030    0.3030    0.5000
  band No.  band energies     occupation 
      1      -9.7638      2.00000
      2      -9.7638      2.00000
      3      -4.2850      2.00000
      4      -4.2850      2.00000
      5      -4.1495      2.00000
      6      -4.1495      2.00000
      7      -4.1073      2.00000
      8      -4.1073      2.00000
      9      -3.8413      2.00000
     10      -3.8413      2.00000
     11      -3.8077      2.00000
     12      -3.8077      2.00000
     13      -1.5488      2.00000
     14      -1.5488      2.00000
     15       0.6455      2.00000
     16       0.6455      2.00000
     17       1.0942      2.00000
     18       1.0942      2.00000
     19       6.0477      0.00000
     20       6.0477      0.00000
     21       7.7725      0.00000
     22       7.7725      0.00000

 k-point    81 :      -0.3333    0.3333    0.5000
  band No.  band energies     occupation 
      1      -9.6976      2.00000
      2      -9.6976      2.00000
      3      -4.2838      2.00000
      4      -4.2838      2.00000
      5      -4.1367      2.00000
      6      -4.1367      2.00000
      7      -4.0790      2.00000
      8      -4.0790      2.00000
      9      -3.8363      2.00000
     10      -3.8363      2.00000
     11      -3.7902      2.00000
     12      -3.7902      2.00000
     13      -1.7959      2.00000
     14      -1.7959      2.00000
     15       0.6595      2.00000
     16       0.6595      2.00000
     17       0.9986      2.00000
     18       0.9986      2.00000
     19       5.9139      0.00000
     20       5.9139      0.00000
     21       7.6618      0.00000
     22       7.6618      0.00000


--------------------------------------------------------------------------------------------------------


 soft charge-density along one line, spin component           1
         0         1         2         3         4         5         6         7         8         9
 total charge-density along one line
 
 pseudopotential strength for first ion, spin component:           1
 -9.844  -0.001   0.007   0.007  -0.002 -10.211  -0.001   0.007
 -0.001  -9.868   0.000  -0.008   0.006  -0.001 -10.233   0.000
  0.007   0.000  -9.865  -0.000  -0.004   0.007   0.000 -10.230
  0.007  -0.008  -0.000  -9.859  -0.001   0.007  -0.007  -0.000
 -0.002   0.006  -0.004  -0.001  -9.846  -0.002   0.006  -0.004
-10.211  -0.001   0.007   0.007  -0.002 -10.502  -0.001   0.007
 -0.001 -10.233   0.000  -0.007   0.006  -0.001 -10.523   0.000
  0.007   0.000 -10.230  -0.000  -0.004   0.007   0.000 -10.520
  0.007  -0.007  -0.000 -10.225  -0.001   0.006  -0.007  -0.000
 -0.002   0.006  -0.004  -0.001 -10.213  -0.002   0.005  -0.004
  0.000  -0.000   0.002   0.001  -0.000   0.000  -0.000   0.002
  0.000  -0.001   0.003   0.001  -0.000   0.000  -0.001   0.003
  0.003  -0.008   0.001  -0.000   0.004   0.003  -0.007   0.001
 -0.000  -0.002  -0.012   0.003   0.000  -0.000  -0.002  -0.011
  0.001  -0.000  -0.002  -0.007   0.003   0.001  -0.000  -0.001
  0.003  -0.008   0.001  -0.000   0.004   0.003  -0.008   0.001
 -0.000  -0.002  -0.013   0.003   0.000  -0.000  -0.002  -0.012
  0.001  -0.000  -0.002  -0.008   0.003   0.000  -0.000  -0.001
 total augmentation occupancy for first ion, spin component:           1
  4.926  -0.184   0.112   1.524  -0.014  -2.900   0.174  -0.118  -1.465   0.010   0.188  -0.014  -0.038  -0.046   0.777  -0.007
 -0.184   3.036   0.033  -0.045   1.312   0.174  -1.054  -0.031   0.044  -1.263   0.053   0.000   0.341  -0.016  -0.043  -0.033
  0.112   0.033   5.076  -0.058  -0.065  -0.118  -0.031  -3.032   0.053   0.068   0.388  -0.133  -0.027  -0.647   0.047   0.003
  1.524  -0.045  -0.058   3.087  -0.184  -1.464   0.044   0.053  -1.106   0.174  -0.092  -0.001  -0.043   0.028   0.391  -0.003
 -0.014   1.312  -0.065  -0.184   4.910   0.010  -1.264   0.068   0.174  -2.889  -0.108   0.008   0.732   0.027  -0.038  -0.065
 -2.900   0.174  -0.118  -1.464   0.010   2.868  -0.164   0.122   1.407  -0.007  -0.173   0.020   0.037   0.040  -0.754   0.008
  0.174  -1.054  -0.031   0.044  -1.264  -0.164   1.069   0.028  -0.045   1.217  -0.050   0.001  -0.340   0.016   0.042   0.038
 -0.118  -0.031  -3.032   0.053   0.068   0.122   0.028   2.980  -0.049  -0.071  -0.344   0.131   0.023   0.631  -0.039  -0.002
 -1.465   0.044   0.053  -1.106   0.174   1.407  -0.045  -0.049   1.121  -0.164   0.087  -0.003   0.042  -0.028  -0.389   0.001
  0.010  -1.263   0.068   0.174  -2.889  -0.007   1.217  -0.071  -0.164   2.860   0.100  -0.012  -0.711  -0.023   0.037   0.082
  0.188   0.053   0.388  -0.092  -0.108  -0.173  -0.050  -0.344   0.087   0.100   2.541  -0.690   0.023   0.071  -0.040  -0.003
 -0.014   0.000  -0.133  -0.001   0.008   0.020   0.001   0.131  -0.003  -0.012  -0.690   0.230   0.000  -0.007  -0.000  -0.001
 -0.038   0.341  -0.027  -0.043   0.732   0.037  -0.340   0.023   0.042  -0.711   0.023   0.000   0.281  -0.007   0.004  -0.035
 -0.046  -0.016  -0.647   0.028   0.027   0.040   0.016   0.631  -0.028  -0.023   0.071  -0.007  -0.007   0.326   0.012   0.001
  0.777  -0.043   0.047   0.391  -0.038  -0.754   0.042  -0.039  -0.389   0.037  -0.040  -0.000   0.004   0.012   0.276  -0.005
 -0.007  -0.033   0.003  -0.003  -0.065   0.008   0.038  -0.002   0.001   0.082  -0.003  -0.001  -0.035   0.001  -0.005   0.006
  0.004  -0.002   0.077   0.003  -0.002  -0.004  -0.000  -0.094   0.001   0.002  -0.010  -0.003   0.001  -0.062  -0.001   0.000
 -0.057  -0.003  -0.005  -0.030  -0.007   0.072   0.001   0.004   0.036   0.008   0.005   0.001  -0.005  -0.001  -0.030   0.002


------------------------ aborting loop because EDIFF is reached ----------------------------------------


    CHARGE:  cpu time    0.1313: real time    0.0330
    FORLOC:  cpu time    0.0094: real time    0.0024
    FORNL :  cpu time    1.2558: real time    0.5497
    STRESS:  cpu time    2.9251: real time    0.7624
    FORCOR:  cpu time    0.0912: real time    0.0228
    FORHAR:  cpu time    0.0217: real time    0.0055
    MIXING:  cpu time    0.0043: real time    0.0011
    OFIELD:  cpu time    0.0001: real time    0.0000

  FORCE on cell =-STRESS in cart. coord.  units (eV):
  Direction    XX          YY          ZZ          XY          YZ          ZX
  --------------------------------------------------------------------------------------
  Alpha Z   142.72219   142.72219   142.72219
  Ewald    -843.16650  -842.87980  -814.34108     0.24829     0.00000     0.00000
  Hartree   449.76800   450.39217   477.39213     0.54055    -0.00000    -0.00000
  E(xc)    -185.23352  -185.13412  -184.98155     0.08608     0.00000     0.00000
  Local       4.25145     9.44164   -44.81566     4.49483    -0.00000    -0.00000
  n-local    79.99919    78.02632    76.61825    -2.12863    -0.50931    -0.21353
  augment    43.18802    44.06629    45.41069     0.76060     0.00000    -0.00000
  Kinetic   318.64724   314.87639   304.14415    -3.57323    -0.88554    -0.36520
  Fock        0.00000     0.00000     0.00000     0.00000     0.00000     0.00000
  -------------------------------------------------------------------------------------
  Total      10.49111    11.19604     2.14912     0.61049     0.00000     0.00000
  in kB     212.14754   226.40252    43.45869    12.34517     0.00000     0.00000
  external pressure =      160.67 kB  Pullay stress =        0.00 kB


 VOLUME and BASIS-vectors are now :
 -----------------------------------------------------------------------------
  energy-cutoff  :      300.00
  volume of cell :       79.23
      direct lattice vectors                 reciprocal lattice vectors
     3.822700000  0.000000000  0.000000000     0.261595208  0.151032064 -0.000000000
    -1.911350000  3.310555311  0.000000000     0.000000000  0.302064127 -0.000000000
     0.000000000  0.000000000  6.260700000     0.000000000  0.000000000  0.159726548

  length of vectors
     3.822700000  3.822700000  6.260700000     0.302064127  0.302064127  0.159726548


 FORCES acting on ions
    electron-ion (+dipol)            ewald-force                    non-local-force                 convergence-correction
 -----------------------------------------------------------------------------------------------
   -.169E+01 0.977E+00 -.109E+01   0.616E-01 -.355E-01 0.381E+01   0.146E+01 -.841E+00 -.183E+01   0.115E-01 -.666E-02 0.151E-01
   0.169E+01 -.977E+00 -.109E+01   -.616E-01 0.355E-01 0.381E+01   -.146E+01 0.841E+00 -.183E+01   -.115E-01 0.666E-02 0.151E-01
   -.141E+01 0.814E+00 0.183E+01   0.573E-01 -.331E-01 -.381E+01   0.965E+00 -.557E+00 0.106E+01   0.119E-01 -.686E-02 0.116E-01
   0.141E+01 -.814E+00 0.183E+01   -.573E-01 0.331E-01 -.381E+01   -.965E+00 0.557E+00 0.106E+01   -.119E-01 0.686E-02 0.116E-01
 -----------------------------------------------------------------------------------------------
   0.241E-05 0.417E-05 0.149E+01   -.110E-13 -.131E-13 0.000E+00   0.000E+00 -.111E-15 -.153E+01   -.480E-14 -.697E-15 0.533E-01
 
 
 POSITION                                       TOTAL-FORCE (eV/Angst)
 -----------------------------------------------------------------------------------
     -0.00019      2.20715      0.00000        -0.163079      0.094153      0.905201
      1.91154      1.10341      3.13035         0.163079     -0.094153      0.905201
     -0.00019      2.20715      2.34651        -0.375429      0.216754     -0.905201
      1.91154      1.10341      5.47686         0.375429     -0.216754     -0.905201
 -----------------------------------------------------------------------------------
    total drift:                                0.000002      0.000004      0.004932


--------------------------------------------------------------------------------------------------------



  FREE ENERGIE OF THE ION-ELECTRON SYSTEM (eV)
  ---------------------------------------------------
  free  energy   TOTEN  =        -7.47893876 eV

  energy  without entropy=       -7.47893876  energy(sigma->0) =       -7.47893876
 


--------------------------------------------------------------------------------------------------------


    POTLOK:  cpu time    0.1025: real time    0.0257


--------------------------------------------------------------------------------------------------------


 writing wavefunctions
     LOOP+:  cpu time   53.9985: real time   13.9268
    4ORBIT:  cpu time    0.0000: real time    0.0000

 total amount of memory used by VASP on root node    87283. kBytes
========================================================================

   base      :      30000. kBytes
   nonl-proj :      22596. kBytes
   fftplans  :       2016. kBytes
   grid      :       3584. kBytes
   one-center:         62. kBytes
   wavefun   :      29025. kBytes
 
  
  
 General timing and accounting informations for this job:
 ========================================================
  
                  Total CPU time used (sec):       55.001
                            User time (sec):       54.075
                          System time (sec):        0.926
                         Elapsed time (sec):       14.351
  
                   Maximum memory used (kb):    84426752.
                   Average memory used (kb):           0.
  
                          Minor page faults:        21065
                          Major page faults:            0
                 Voluntary context switches:           10
