<?xml version="1.0" encoding="ISO-8859-1"?>
<modeling>
 <generator>
  <i name="program" type="string">vasp </i>
  <i name="version" type="string">5.4.1  </i>
  <i name="subversion" type="string">24Jun15 (build Oct 13 2015 09:47:18) complex                          parallel </i>
  <i name="platform" type="string">IFC91_ompi </i>
  <i name="date" type="string">2016 02 03 </i>
  <i name="time" type="string">16:38:37 </i>
 </generator>
 <incar>
  <i type="string" name="SYSTEM"> Band structure</i>
  <i type="string" name="PREC">normal</i>
  <i type="int" name="NSW">     0</i>
  <i name="ENCUT">    300.00000000</i>
  <i type="int" name="ISMEAR">     0</i>
  <i name="SIGMA">      0.01000000</i>
  <v type="int" name="KPOINT_BSE">    -1     0     0     0</v>
  <i type="string" name="GGA"> PS</i>
 </incar>
 <kpoints>
  <varray name="kpointlist" >
   <v>       0.00000000       0.00000000       0.00000000 </v>
   <v>       0.06539900       0.03775800       0.00000000 </v>
   <v>       0.13079800       0.07551600       0.00000000 </v>
   <v>       0.06539900       0.11327400       0.00000000 </v>
   <v>       0.13079800       0.15103200       0.00000000 </v>
   <v>      -0.06539900       0.03775800       0.00000000 </v>
   <v>       0.13079800       0.22654800       0.00000000 </v>
   <v>       0.00000000       0.00000000       0.03993200 </v>
   <v>       0.06539900       0.03775800       0.03993200 </v>
   <v>       0.13079800       0.07551600       0.03993200 </v>
   <v>       0.06539900       0.11327400       0.03993200 </v>
   <v>       0.13079800       0.15103200       0.03993200 </v>
   <v>      -0.06539900       0.03775800       0.03993200 </v>
   <v>       0.13079800       0.22654800       0.03993200 </v>
   <v>       0.00000000       0.00000000       0.07986300 </v>
   <v>       0.06539900       0.03775800       0.07986300 </v>
   <v>       0.13079800       0.07551600       0.07986300 </v>
   <v>       0.06539900       0.11327400       0.07986300 </v>
   <v>       0.13079800       0.15103200       0.07986300 </v>
   <v>      -0.06539900       0.03775800       0.07986300 </v>
   <v>       0.13079800       0.22654800       0.07986300 </v>
   <v>       0.00000000       0.00000000       0.50000000 </v>
   <v>       0.00000000       0.03125000       0.50000000 </v>
   <v>       0.00000000       0.06250000       0.50000000 </v>
   <v>       0.00000000       0.09375000       0.50000000 </v>
   <v>       0.00000000       0.12500000       0.50000000 </v>
   <v>       0.00000000       0.15625000       0.50000000 </v>
   <v>       0.00000000       0.18750000       0.50000000 </v>
   <v>       0.00000000       0.21875000       0.50000000 </v>
   <v>       0.00000000       0.25000000       0.50000000 </v>
   <v>       0.00000000       0.28125000       0.50000000 </v>
   <v>       0.00000000       0.31250000       0.50000000 </v>
   <v>       0.00000000       0.34375000       0.50000000 </v>
   <v>       0.00000000       0.37500000       0.50000000 </v>
   <v>       0.00000000       0.40625000       0.50000000 </v>
   <v>       0.00000000       0.43750000       0.50000000 </v>
   <v>       0.00000000       0.46875000       0.50000000 </v>
   <v>       0.00000000       0.50000000       0.50000000 </v>
   <v>       0.00000000       0.50000000       0.43750000 </v>
   <v>       0.00000000       0.50000000       0.37500000 </v>
   <v>       0.00000000       0.50000000       0.31250000 </v>
   <v>       0.00000000       0.50000000       0.25000000 </v>
   <v>       0.00000000       0.50000000       0.18750000 </v>
   <v>       0.00000000       0.50000000       0.12500000 </v>
   <v>       0.00000000       0.50000000       0.06250000 </v>
   <v>       0.00000000       0.50000000       0.00000000 </v>
   <v>       0.00000000       0.46875000       0.00000000 </v>
   <v>       0.00000000       0.43750000       0.00000000 </v>
   <v>       0.00000000       0.40625000       0.00000000 </v>
   <v>       0.00000000       0.37500000       0.00000000 </v>
   <v>       0.00000000       0.34375000       0.00000000 </v>
   <v>       0.00000000       0.31250000       0.00000000 </v>
   <v>       0.00000000       0.28125000       0.00000000 </v>
   <v>       0.00000000       0.25000000       0.00000000 </v>
   <v>       0.00000000       0.21875000       0.00000000 </v>
   <v>       0.00000000       0.18750000       0.00000000 </v>
   <v>       0.00000000       0.15625000       0.00000000 </v>
   <v>       0.00000000       0.12500000       0.00000000 </v>
   <v>       0.00000000       0.09375000       0.00000000 </v>
   <v>       0.00000000       0.06250000       0.00000000 </v>
   <v>       0.00000000       0.03125000       0.00000000 </v>
   <v>       0.00000000       0.00000000       0.00000000 </v>
   <v>       0.00000000       0.00000000       0.06250000 </v>
   <v>       0.00000000       0.00000000       0.12500000 </v>
   <v>       0.00000000       0.00000000       0.18750000 </v>
   <v>       0.00000000       0.00000000       0.25000000 </v>
   <v>       0.00000000       0.00000000       0.31250000 </v>
   <v>       0.00000000       0.00000000       0.37500000 </v>
   <v>       0.00000000       0.00000000       0.43750000 </v>
   <v>       0.00000000       0.00000000       0.50000000 </v>
   <v>      -0.03030300       0.03030300       0.50000000 </v>
   <v>      -0.06060600       0.06060600       0.50000000 </v>
   <v>      -0.09090900       0.09090900       0.50000000 </v>
   <v>      -0.12121200       0.12121200       0.50000000 </v>
   <v>      -0.15151500       0.15151500       0.50000000 </v>
   <v>      -0.18181800       0.18181800       0.50000000 </v>
   <v>      -0.21212100       0.21212100       0.50000000 </v>
   <v>      -0.24242400       0.24242400       0.50000000 </v>
   <v>      -0.27272700       0.27272700       0.50000000 </v>
   <v>      -0.30303000       0.30303000       0.50000000 </v>
   <v>      -0.33333300       0.33333300       0.50000000 </v>
  </varray>
  <varray name="weights" >
   <v>       0.01562500 </v>
   <v>       0.06250000 </v>
   <v>       0.03125000 </v>
   <v>       0.03125000 </v>
   <v>       0.06250000 </v>
   <v>       0.03125000 </v>
   <v>       0.01562500 </v>
   <v>       0.03125000 </v>
   <v>       0.12500000 </v>
   <v>       0.06250000 </v>
   <v>       0.06250000 </v>
   <v>       0.12500000 </v>
   <v>       0.06250000 </v>
   <v>       0.03125000 </v>
   <v>       0.01562500 </v>
   <v>       0.06250000 </v>
   <v>       0.03125000 </v>
   <v>       0.03125000 </v>
   <v>       0.06250000 </v>
   <v>       0.03125000 </v>
   <v>       0.01562500 </v>
   <v>       0.00000000 </v>
   <v>       0.00000000 </v>
   <v>       0.00000000 </v>
   <v>       0.00000000 </v>
   <v>       0.00000000 </v>
   <v>       0.00000000 </v>
   <v>       0.00000000 </v>
   <v>       0.00000000 </v>
   <v>       0.00000000 </v>
   <v>       0.00000000 </v>
   <v>       0.00000000 </v>
   <v>       0.00000000 </v>
   <v>       0.00000000 </v>
   <v>       0.00000000 </v>
   <v>       0.00000000 </v>
   <v>       0.00000000 </v>
   <v>       0.00000000 </v>
   <v>       0.00000000 </v>
   <v>       0.00000000 </v>
   <v>       0.00000000 </v>
   <v>       0.00000000 </v>
   <v>       0.00000000 </v>
   <v>       0.00000000 </v>
   <v>       0.00000000 </v>
   <v>       0.00000000 </v>
   <v>       0.00000000 </v>
   <v>       0.00000000 </v>
   <v>       0.00000000 </v>
   <v>       0.00000000 </v>
   <v>       0.00000000 </v>
   <v>       0.00000000 </v>
   <v>       0.00000000 </v>
   <v>       0.00000000 </v>
   <v>       0.00000000 </v>
   <v>       0.00000000 </v>
   <v>       0.00000000 </v>
   <v>       0.00000000 </v>
   <v>       0.00000000 </v>
   <v>       0.00000000 </v>
   <v>       0.00000000 </v>
   <v>       0.00000000 </v>
   <v>       0.00000000 </v>
   <v>       0.00000000 </v>
   <v>       0.00000000 </v>
   <v>       0.00000000 </v>
   <v>       0.00000000 </v>
   <v>       0.00000000 </v>
   <v>       0.00000000 </v>
   <v>       0.00000000 </v>
   <v>       0.00000000 </v>
   <v>       0.00000000 </v>
   <v>       0.00000000 </v>
   <v>       0.00000000 </v>
   <v>       0.00000000 </v>
   <v>       0.00000000 </v>
   <v>       0.00000000 </v>
   <v>       0.00000000 </v>
   <v>       0.00000000 </v>
   <v>       0.00000000 </v>
   <v>       0.00000000 </v>
  </varray>
 </kpoints>
 <parameters>
  <separator name="general" >
   <i type="string" name="SYSTEM">Band structure</i>
   <i type="logical" name="LCOMPAT"> F  </i>
  </separator>
  <separator name="electronic" >
   <i type="string" name="PREC">normal</i>
   <i name="ENMAX">    300.00000000</i>
   <i name="ENAUG">    575.89200000</i>
   <i name="EDIFF">      0.00010000</i>
   <i type="int" name="IALGO">    38</i>
   <i type="int" name="IWAVPR">    10</i>
   <i type="int" name="NBANDS">    22</i>
   <i name="NELECT">     36.00000000</i>
   <i type="int" name="TURBO">     0</i>
   <i type="int" name="IRESTART">     0</i>
   <i type="int" name="NREBOOT">     0</i>
   <i type="int" name="NMIN">     0</i>
   <i name="EREF">      0.00000000</i>
   <separator name="electronic smearing" >
    <i type="int" name="ISMEAR">     0</i>
    <i name="SIGMA">      0.01000000</i>
    <i name="KSPACING">      0.50000000</i>
    <i type="logical" name="KGAMMA"> T  </i>
   </separator>
   <separator name="electronic projectors" >
    <i type="logical" name="LREAL"> F  </i>
    <v name="ROPT">      0.00000000      0.00000000</v>
    <i type="int" name="LMAXPAW">  -100</i>
    <i type="int" name="LMAXMIX">     2</i>
    <i type="logical" name="NLSPLINE"> F  </i>
   </separator>
   <separator name="electronic startup" >
    <i type="int" name="ISTART">     1</i>
    <i type="int" name="ICHARG">     0</i>
    <i type="int" name="INIWAV">     1</i>
   </separator>
   <separator name="electronic spin" >
    <i type="int" name="ISPIN">     1</i>
    <i type="logical" name="LNONCOLLINEAR"> F  </i>
    <v name="MAGMOM">      1.00000000      1.00000000      1.00000000      1.00000000</v>
    <i name="NUPDOWN">     -1.00000000</i>
    <i type="logical" name="LSORBIT"> F  </i>
    <v name="SAXIS">      0.00000000      0.00000000      1.00000000</v>
    <i type="logical" name="LSPIRAL"> F  </i>
    <v name="QSPIRAL">      0.00000000      0.00000000      0.00000000</v>
    <i type="logical" name="LZEROZ"> F  </i>
   </separator>
   <separator name="electronic exchange-correlation" >
    <i type="logical" name="LASPH"> F  </i>
    <i type="logical" name="LMETAGGA"> F  </i>
   </separator>
   <separator name="electronic convergence" >
    <i type="int" name="NELM">    60</i>
    <i type="int" name="NELMDL">     0</i>
    <i type="int" name="NELMIN">     2</i>
    <i name="ENINI">    300.00000000</i>
    <separator name="electronic convergence detail" >
     <i type="logical" name="LDIAG"> T  </i>
     <i type="logical" name="LSUBROT"> F  </i>
     <i name="WEIMIN">      0.00000000</i>
     <i name="EBREAK">      0.00000114</i>
     <i name="DEPER">      0.30000000</i>
     <i type="int" name="NRMM">     4</i>
     <i name="TIME">      0.40000000</i>
    </separator>
   </separator>
   <separator name="electronic mixer" >
    <i name="AMIX">      0.40000000</i>
    <i name="BMIX">      1.00000000</i>
    <i name="AMIN">      0.10000000</i>
    <i name="AMIX_MAG">      1.60000000</i>
    <i name="BMIX_MAG">      1.00000000</i>
    <separator name="electronic mixer details" >
     <i type="int" name="IMIX">     4</i>
     <i type="logical" name="MIXFIRST"> F  </i>
     <i type="int" name="MAXMIX">   -45</i>
     <i name="WC">    100.00000000</i>
     <i type="int" name="INIMIX">     1</i>
     <i type="int" name="MIXPRE">     1</i>
     <i type="int" name="MREMOVE">     5</i>
    </separator>
   </separator>
   <separator name="electronic dipolcorrection" >
    <i type="logical" name="LDIPOL"> F  </i>
    <i type="logical" name="LMONO"> F  </i>
    <i type="int" name="IDIPOL">     0</i>
    <i name="EPSILON">      1.00000000</i>
    <v name="DIPOL">   -100.00000000   -100.00000000   -100.00000000</v>
    <i name="EFIELD">      0.00000000</i>
   </separator>
  </separator>
  <separator name="grids" >
   <i type="int" name="NGX">    16</i>
   <i type="int" name="NGY">    16</i>
   <i type="int" name="NGZ">    28</i>
   <i type="int" name="NGXF">    32</i>
   <i type="int" name="NGYF">    32</i>
   <i type="int" name="NGZF">    56</i>
   <i type="logical" name="ADDGRID"> F  </i>
  </separator>
  <separator name="ionic" >
   <i type="int" name="NSW">     0</i>
   <i type="int" name="IBRION">    -1</i>
   <i type="int" name="ISIF">     2</i>
   <i name="PSTRESS">      0.00000000</i>
   <i name="EDIFFG">      0.00100000</i>
   <i type="int" name="NFREE">     0</i>
   <i name="POTIM">      0.50000000</i>
   <i name="SMASS">     -3.00000000</i>
   <i name="SCALEE">      1.00000000</i>
  </separator>
  <separator name="ionic md" >
   <i name="TEBEG">      0.00010000</i>
   <i name="TEEND">      0.00010000</i>
   <i type="int" name="NBLOCK">     1</i>
   <i type="int" name="KBLOCK">     1</i>
   <i type="int" name="NPACO">   256</i>
   <i name="APACO">     16.00000000</i>
  </separator>
  <separator name="symmetry" >
   <i type="int" name="ISYM">     2</i>
   <i name="SYMPREC">      0.00001000</i>
  </separator>
  <separator name="dos" >
   <i type="logical" name="LORBIT"> F  </i>
   <v name="RWIGS">     -1.00000000     -1.00000000</v>
   <i type="int" name="NEDOS">   301</i>
   <i name="EMIN">     10.00000000</i>
   <i name="EMAX">    -10.00000000</i>
   <i name="EFERMI">      0.00000000</i>
  </separator>
  <separator name="writing" >
   <i type="int" name="NWRITE">     2</i>
   <i type="logical" name="LWAVE"> T  </i>
   <i type="logical" name="LCHARG"> T  </i>
   <i type="logical" name="LPARD"> F  </i>
   <i type="logical" name="LVTOT"> F  </i>
   <i type="logical" name="LVHAR"> F  </i>
   <i type="logical" name="LELF"> F  </i>
   <i type="logical" name="LOPTICS"> F  </i>
   <v name="STM">      0.00000000      0.00000000      0.00000000      0.00000000      0.00000000      0.00000000      0.00000000</v>
  </separator>
  <separator name="performance" >
   <i type="int" name="NPAR">     1</i>
   <i type="int" name="NSIM">     4</i>
   <i type="int" name="NBLK">    -1</i>
   <i type="logical" name="LPLANE"> T  </i>
   <i type="logical" name="LSCALAPACK"> F  </i>
   <i type="logical" name="LSCAAWARE"> F  </i>
   <i type="logical" name="LSCALU"> F  </i>
   <i type="logical" name="LASYNC"> F  </i>
   <i type="logical" name="LORBITALREAL"> F  </i>
  </separator>
  <separator name="miscellaneous" >
   <i type="int" name="IDIOT">     3</i>
   <i type="logical" name="LMUSIC"> F  </i>
   <v name="POMASS">     65.39000000     32.06600000</v>
   <v name="DARWINR">      0.00000000      0.00000000</v>
   <v name="DARWINV">      1.00000000      1.00000000</v>
   <i type="logical" name="LCORR"> T  </i>
  </separator>
  <i type="logical" name="GGA_COMPAT"> T  </i>
  <i type="logical" name="LBERRY"> F  </i>
  <i type="int" name="ICORELEVEL">     0</i>
  <i type="logical" name="LDAU"> F  </i>
  <i type="int" name="I_CONSTRAINED_M">     0</i>
  <separator name="electronic exchange-correlation" >
   <i type="string" name="GGA">PS</i>
   <i type="int" name="VOSKOWN">     0</i>
   <i type="logical" name="LHFCALC"> F  </i>
   <i type="string" name="PRECFOCK"></i>
   <i type="logical" name="LSYMGRAD"> F  </i>
   <i type="logical" name="LHFONE"> F  </i>
   <i type="logical" name="LRHFCALC"> F  </i>
   <i type="logical" name="LTHOMAS"> F  </i>
   <i type="logical" name="LMODELHF"> F  </i>
   <i name="ENCUT4O">     -1.00000000</i>
   <i type="int" name="EXXOEP">     0</i>
   <i type="int" name="FOURORBIT">     0</i>
   <i name="AEXX">      0.00000000</i>
   <i name="HFALPHA">      0.00000000</i>
   <i name="MCALPHA">      0.00000000</i>
   <i name="ALDAX">      1.00000000</i>
   <i name="AGGAX">      1.00000000</i>
   <i name="ALDAC">      1.00000000</i>
   <i name="AGGAC">      1.00000000</i>
   <i type="int" name="NKREDX">     1</i>
   <i type="int" name="NKREDY">     1</i>
   <i type="int" name="NKREDZ">     1</i>
   <i type="logical" name="SHIFTRED"> F  </i>
   <i type="logical" name="ODDONLY"> F  </i>
   <i type="logical" name="EVENONLY"> F  </i>
   <i type="int" name="LMAXFOCK">     0</i>
   <i type="int" name="NMAXFOCKAE">     0</i>
   <i type="logical" name="LFOCKAEDFT"> F  </i>
   <i name="HFSCREEN">      0.00000000</i>
   <i name="HFSCREENC">      0.00000000</i>
   <i type="int" name="NBANDSGWLOW">     0</i>
  </separator>
  <separator name="vdW DFT" >
   <i type="logical" name="LUSE_VDW"> F  </i>
   <i name="Zab_VDW">     -0.84910000</i>
   <i name="PARAM1">      0.12340000</i>
   <i name="PARAM2">      1.00000000</i>
   <i name="PARAM3">      0.00000000</i>
  </separator>
  <separator name="model GW" >
   <i type="int" name="MODEL_GW">     0</i>
   <i name="MODEL_EPS0">     11.88461774</i>
   <i name="MODEL_ALPHA">      1.00000000</i>
  </separator>
  <separator name="linear response parameters" >
   <i type="logical" name="LEPSILON"> F  </i>
   <i type="logical" name="LRPA"> F  </i>
   <i type="logical" name="LNABLA"> F  </i>
   <i type="logical" name="LVEL"> F  </i>
   <i type="int" name="KINTER">     0</i>
   <i name="CSHIFT">      0.10000000</i>
   <i name="OMEGAMAX">     -1.00000000</i>
   <i name="DEG_THRESHOLD">      0.00200000</i>
  </separator>
  <separator name="orbital magnetization" >
   <i type="logical" name="NUCIND"> F  </i>
   <v name="MAGPOS">      0.00000000      0.00000000      0.00000000</v>
   <i type="logical" name="LNICSALL"> T  </i>
   <i type="logical" name="ORBITALMAG"> F  </i>
   <i type="logical" name="LMAGBLOCH"> F  </i>
   <i type="logical" name="LCHIMAG"> F  </i>
   <i type="logical" name="LGAUGE"> T  </i>
   <i type="int" name="MAGATOM">     0</i>
   <v name="MAGDIPOL">      0.00000000      0.00000000      0.00000000</v>
   <v name="AVECCONST">      0.00000000      0.00000000      0.00000000</v>
  </separator>
  <separator name="response functions" >
   <i type="logical" name="LADDER"> F  </i>
   <i type="logical" name="LFXC"> F  </i>
   <i type="logical" name="LHARTREE"> T  </i>
   <i type="int" name="IBSE">     0</i>
   <v type="int" name="KPOINT">    -1     0     0     0</v>
   <i type="logical" name="LTCTE"> F  </i>
   <i type="logical" name="LTETE"> F  </i>
   <i type="logical" name="LTRIPLET"> F  </i>
   <i type="logical" name="LFXCEPS"> F  </i>
   <i type="logical" name="LFXHEG"> F  </i>
   <i type="int" name="NATURALO">     0</i>
   <i type="logical" name="L2ORDER"> F  </i>
   <i type="logical" name="LUSEW"> F  </i>
   <i name="ENCUTGW">     -2.00000000</i>
   <i name="ENCUTGWSOFT">     -2.00000000</i>
   <i name="ENCUTLF">     -1.00000000</i>
   <i type="int" name="LMAXMP2">    -1</i>
   <i name="SCISSOR">      0.00000000</i>
   <i type="int" name="NOMEGA">     0</i>
   <i type="int" name="NOMEGAR">     0</i>
   <i type="int" name="NBANDSGW">    -1</i>
   <i type="int" name="NBANDSO">    -1</i>
   <i type="int" name="NBANDSV">    -1</i>
   <i type="int" name="NELM">     1</i>
   <i type="int" name="NELMHF">     1</i>
   <i type="int" name="DIM">     3</i>
   <i type="int" name="ANTIRES">     0</i>
   <i name="OMEGAMAX">    -30.00000000</i>
   <i name="OMEGAMIN">    -30.00000000</i>
   <i name="OMEGATL">   -200.00000000</i>
   <i type="int" name="OMEGAGRID">     0</i>
   <i name="CSHIFT">     -0.10000000</i>
   <i type="logical" name="SELFENERGY"> F  </i>
   <i type="logical" name="LSPECTRAL"> F  </i>
   <i type="logical" name="LSPECTRALGW"> F  </i>
   <i type="logical" name="LSINGLES"> F  </i>
   <i type="logical" name="LFERMIGW"> F  </i>
   <i type="logical" name="ODDONLYGW"> F  </i>
   <i type="logical" name="EVENONLYGW"> F  </i>
   <i type="int" name="NKREDLFX">     1</i>
   <i type="int" name="NKREDLFY">     1</i>
   <i type="int" name="NKREDLFZ">     1</i>
   <i type="int" name="MAXMEM">  1800</i>
   <i type="int" name="TELESCOPE">     0</i>
   <i type="int" name="TAUPAR">     1</i>
   <i type="int" name="OMEGAPAR">    -1</i>
   <i name="LAMBDA">      1.00000000</i>
  </separator>
  <separator name="External order field" >
   <i name="OFIELD_KAPPA">      0.00000000</i>
   <v name="OFIELD_K">      0.00000000      0.00000000      0.00000000</v>
   <i name="OFIELD_Q6_NEAR">      0.00000000</i>
   <i name="OFIELD_Q6_FAR">      0.00000000</i>
   <i name="OFIELD_A">      0.00000000</i>
  </separator>
 </parameters>
 <atominfo>
  <atoms>       4 </atoms>
  <types>       2 </types>
  <array name="atoms" >
   <dimension dim="1">ion</dimension>
   <field type="string">element</field>
   <field type="int">atomtype</field>
   <set>
    <rc><c>Zn</c><c>   1</c></rc>
    <rc><c>Zn</c><c>   1</c></rc>
    <rc><c>S </c><c>   2</c></rc>
    <rc><c>S </c><c>   2</c></rc>
   </set>
  </array>
  <array name="atomtypes" >
   <dimension dim="1">type</dimension>
   <field type="int">atomspertype</field>
   <field type="string">element</field>
   <field>mass</field>
   <field>valence</field>
   <field type="string">pseudopotential</field>
   <set>
    <rc><c>   2</c><c>Zn</c><c>     65.39000000</c><c>     12.00000000</c><c>  PAW_PBE Zn 06Sep2000                  </c></rc>
    <rc><c>   2</c><c>S </c><c>     32.06600000</c><c>      6.00000000</c><c>  PAW_PBE S 06Sep2000                   </c></rc>
   </set>
  </array>
 </atominfo>
 <structure name="initialpos" >
  <crystal>
   <varray name="basis" >
    <v>       3.82270000       0.00000000       0.00000000 </v>
    <v>      -1.91135000       3.31055531       0.00000000 </v>
    <v>       0.00000000       0.00000000       6.26070000 </v>
   </varray>
   <i name="volume">     79.23078495 </i>
   <varray name="rec_basis" >
    <v>       0.26159521       0.15103206      -0.00000000 </v>
    <v>       0.00000000       0.30206413      -0.00000000 </v>
    <v>       0.00000000       0.00000000       0.15972655 </v>
   </varray>
  </crystal>
  <varray name="positions" >
   <v>       0.33330000       0.66670000       0.00000000 </v>
   <v>       0.66670000       0.33330000       0.50000000 </v>
   <v>       0.33330000       0.66670000       0.37480000 </v>
   <v>       0.66670000       0.33330000       0.87480000 </v>
  </varray>
 </structure>
 <calculation>
  <scstep>
   <time name="dav">    6.93    1.79</time>
   <time name="total">    7.16    1.85</time>
   <energy>
    <i name="alphaZ">    142.72218768 </i>
    <i name="ewald">  -2500.38568288 </i>
    <i name="hartreedc">  -1363.34788880 </i>
    <i name="XCdc">    140.49851410 </i>
    <i name="pawpsdc">  12827.64680627 </i>
    <i name="pawaedc"> -13182.74341784 </i>
    <i name="eentropy">     -0.00000000 </i>
    <i name="bandstr">   -116.55263950 </i>
    <i name="atom">   4048.08011476 </i>
    <i name="e_fr_energy">     -4.08200621 </i>
    <i name="e_wo_entrp">     -4.08200621 </i>
    <i name="e_0_energy">     -4.08200621 </i>
   </energy>
  </scstep>
  <scstep>
   <time name="dav">    5.69    1.44</time>
   <time name="total">    5.94    1.50</time>
   <energy>
    <i name="e_fr_energy">     -7.48979530 </i>
    <i name="e_wo_entrp">     -7.48979530 </i>
    <i name="e_0_energy">     -7.48979530 </i>
   </energy>
  </scstep>
  <scstep>
   <time name="dav">    6.36    1.60</time>
   <time name="total">    6.59    1.66</time>
   <energy>
    <i name="e_fr_energy">     -7.95439156 </i>
    <i name="e_wo_entrp">     -7.95439156 </i>
    <i name="e_0_energy">     -7.95439156 </i>
   </energy>
  </scstep>
  <scstep>
   <time name="dav">    6.11    1.54</time>
   <time name="total">    6.36    1.61</time>
   <energy>
    <i name="e_fr_energy">     -7.44538571 </i>
    <i name="e_wo_entrp">     -7.44538571 </i>
    <i name="e_0_energy">     -7.44538571 </i>
   </energy>
  </scstep>
  <scstep>
   <time name="dav">    5.75    1.45</time>
   <time name="total">    6.01    1.51</time>
   <energy>
    <i name="e_fr_energy">     -7.47996256 </i>
    <i name="e_wo_entrp">     -7.47996256 </i>
    <i name="e_0_energy">     -7.47996256 </i>
   </energy>
  </scstep>
  <scstep>
   <time name="dav">    6.40    1.61</time>
   <time name="total">    6.63    1.68</time>
   <energy>
    <i name="e_fr_energy">     -7.47885054 </i>
    <i name="e_wo_entrp">     -7.47885054 </i>
    <i name="e_0_energy">     -7.47885054 </i>
   </energy>
  </scstep>
  <scstep>
   <time name="dav">    5.89    1.49</time>
   <time name="total">    6.15    1.55</time>
   <energy>
    <i name="e_fr_energy">     -7.47894562 </i>
    <i name="e_wo_entrp">     -7.47894562 </i>
    <i name="e_0_energy">     -7.47894562 </i>
   </energy>
  </scstep>
  <scstep>
   <time name="dav">    4.01    1.01</time>
   <time name="total">    4.12    1.04</time>
   <energy>
    <i name="alphaZ">    142.72218768 </i>
    <i name="ewald">  -2500.38568288 </i>
    <i name="hartreedc">  -1377.46325923 </i>
    <i name="XCdc">    141.62302715 </i>
    <i name="pawpsdc">   4550.68524019 </i>
    <i name="pawaedc">  -4900.34538724 </i>
    <i name="eentropy">     -0.00000000 </i>
    <i name="bandstr">   -112.39517919 </i>
    <i name="atom">   4048.08011476 </i>
    <i name="e_fr_energy">     -7.47893876 </i>
    <i name="e_wo_entrp">     -7.47893876 </i>
    <i name="e_0_energy">     -7.47893876 </i>
   </energy>
  </scstep>
  <structure>
   <crystal>
    <varray name="basis" >
     <v>       3.82270000       0.00000000       0.00000000 </v>
     <v>      -1.91135000       3.31055531       0.00000000 </v>
     <v>       0.00000000       0.00000000       6.26070000 </v>
    </varray>
    <i name="volume">     79.23078495 </i>
    <varray name="rec_basis" >
     <v>       0.26159521       0.15103206      -0.00000000 </v>
     <v>       0.00000000       0.30206413      -0.00000000 </v>
     <v>       0.00000000       0.00000000       0.15972655 </v>
    </varray>
   </crystal>
   <varray name="positions" >
    <v>       0.33330000       0.66670000       0.00000000 </v>
    <v>       0.66670000       0.33330000       0.50000000 </v>
    <v>       0.33330000       0.66670000       0.37480000 </v>
    <v>       0.66670000       0.33330000       0.87480000 </v>
   </varray>
  </structure>
  <varray name="forces" >
   <v>      -0.16307863       0.09415349       0.90520056 </v>
   <v>       0.16307863      -0.09415349       0.90520056 </v>
   <v>      -0.37542938       0.21675425      -0.90520056 </v>
   <v>       0.37542938      -0.21675425      -0.90520056 </v>
  </varray>
  <varray name="stress" >
   <v>     212.14754283      12.34517161       0.00000000 </v>
   <v>      12.34517161     226.40251914       0.00000000 </v>
   <v>       0.00000000       0.00000000      43.45868838 </v>
  </varray>
  <energy>
   <i name="e_fr_energy">     -7.47893876 </i>
   <i name="e_wo_entrp">     -7.47893876 </i>
   <i name="e_0_energy">     -0.00000000 </i>
  </energy>
  <time name="totalsc">   54.00   13.93</time>
  <eigenvalues>
   <array>
    <dimension dim="1">band</dimension>
    <dimension dim="2">kpoint</dimension>
    <dimension dim="3">spin</dimension>
    <field>eigene</field>
    <field>occ</field>
    <set>
     <set comment="spin 1">
      <set comment="kpoint 1">
       <r>  -10.6762    1.0000 </r>
       <r>   -9.6655    1.0000 </r>
       <r>   -4.3004    1.0000 </r>
       <r>   -4.2894    1.0000 </r>
       <r>   -4.2651    1.0000 </r>
       <r>   -4.2122    1.0000 </r>
       <r>   -4.1942    1.0000 </r>
       <r>   -3.9010    1.0000 </r>
       <r>   -3.8928    1.0000 </r>
       <r>   -3.8264    1.0000 </r>
       <r>   -3.8123    1.0000 </r>
       <r>   -3.6419    1.0000 </r>
       <r>   -3.1049    1.0000 </r>
       <r>    1.4942    1.0000 </r>
       <r>    1.5910    1.0000 </r>
       <r>    2.3970    1.0000 </r>
       <r>    2.4305    1.0000 </r>
       <r>    2.5512    1.0000 </r>
       <r>    4.2621    0.0000 </r>
       <r>    5.0876    0.0000 </r>
       <r>    8.3079    0.0000 </r>
       <r>    8.3321    0.0000 </r>
      </set>
      <set comment="kpoint 2">
       <r>  -10.6171    1.0000 </r>
       <r>   -9.6315    1.0000 </r>
       <r>   -4.2996    1.0000 </r>
       <r>   -4.2823    1.0000 </r>
       <r>   -4.2548    1.0000 </r>
       <r>   -4.2072    1.0000 </r>
       <r>   -4.1792    1.0000 </r>
       <r>   -3.9072    1.0000 </r>
       <r>   -3.8950    1.0000 </r>
       <r>   -3.8542    1.0000 </r>
       <r>   -3.8107    1.0000 </r>
       <r>   -3.6171    1.0000 </r>
       <r>   -3.0247    1.0000 </r>
       <r>    1.0111    1.0000 </r>
       <r>    1.4124    1.0000 </r>
       <r>    1.8747    1.0000 </r>
       <r>    2.3212    1.0000 </r>
       <r>    2.4607    1.0000 </r>
       <r>    4.7959    0.0000 </r>
       <r>    5.5464    0.0000 </r>
       <r>    8.0526    0.0000 </r>
       <r>    8.4757    0.0000 </r>
      </set>
      <set comment="kpoint 3">
       <r>  -10.4485    1.0000 </r>
       <r>   -9.5409    1.0000 </r>
       <r>   -4.3007    1.0000 </r>
       <r>   -4.2545    1.0000 </r>
       <r>   -4.2328    1.0000 </r>
       <r>   -4.1879    1.0000 </r>
       <r>   -4.1361    1.0000 </r>
       <r>   -3.9228    1.0000 </r>
       <r>   -3.9040    1.0000 </r>
       <r>   -3.8847    1.0000 </r>
       <r>   -3.8061    1.0000 </r>
       <r>   -3.5787    1.0000 </r>
       <r>   -2.8055    1.0000 </r>
       <r>    0.0810    1.0000 </r>
       <r>    0.6885    1.0000 </r>
       <r>    1.1888    1.0000 </r>
       <r>    2.0940    1.0000 </r>
       <r>    2.1875    1.0000 </r>
       <r>    5.6282    0.0000 </r>
       <r>    6.3032    0.0000 </r>
       <r>    7.7082    0.0000 </r>
       <r>    8.6181    0.0000 </r>
      </set>
      <set comment="kpoint 4">
       <r>  -10.5032    1.0000 </r>
       <r>   -9.5692    1.0000 </r>
       <r>   -4.3013    1.0000 </r>
       <r>   -4.2634    1.0000 </r>
       <r>   -4.2386    1.0000 </r>
       <r>   -4.1950    1.0000 </r>
       <r>   -4.1501    1.0000 </r>
       <r>   -3.9181    1.0000 </r>
       <r>   -3.9005    1.0000 </r>
       <r>   -3.8799    1.0000 </r>
       <r>   -3.8076    1.0000 </r>
       <r>   -3.5891    1.0000 </r>
       <r>   -2.8745    1.0000 </r>
       <r>    0.3364    1.0000 </r>
       <r>    0.9349    1.0000 </r>
       <r>    1.3471    1.0000 </r>
       <r>    2.1697    1.0000 </r>
       <r>    2.2779    1.0000 </r>
       <r>    5.4105    0.0000 </r>
       <r>    6.1207    0.0000 </r>
       <r>    7.7659    0.0000 </r>
       <r>    8.6410    0.0000 </r>
      </set>
      <set comment="kpoint 5">
       <r>  -10.2786    1.0000 </r>
       <r>   -9.4606    1.0000 </r>
       <r>   -4.2876    1.0000 </r>
       <r>   -4.2268    1.0000 </r>
       <r>   -4.2246    1.0000 </r>
       <r>   -4.1629    1.0000 </r>
       <r>   -4.0927    1.0000 </r>
       <r>   -3.9333    1.0000 </r>
       <r>   -3.9129    1.0000 </r>
       <r>   -3.8889    1.0000 </r>
       <r>   -3.8012    1.0000 </r>
       <r>   -3.5469    1.0000 </r>
       <r>   -2.6128    1.0000 </r>
       <r>   -0.4917    1.0000 </r>
       <r>   -0.0135    1.0000 </r>
       <r>    0.7473    1.0000 </r>
       <r>    1.8522    1.0000 </r>
       <r>    1.8636    1.0000 </r>
       <r>    6.1863    0.0000 </r>
       <r>    6.8024    0.0000 </r>
       <r>    7.6095    0.0000 </r>
       <r>    8.2371    0.0000 </r>
      </set>
      <set comment="kpoint 6">
       <r>  -10.6527    1.0000 </r>
       <r>   -9.6519    1.0000 </r>
       <r>   -4.2976    1.0000 </r>
       <r>   -4.2857    1.0000 </r>
       <r>   -4.2646    1.0000 </r>
       <r>   -4.2070    1.0000 </r>
       <r>   -4.1914    1.0000 </r>
       <r>   -3.9018    1.0000 </r>
       <r>   -3.8950    1.0000 </r>
       <r>   -3.8319    1.0000 </r>
       <r>   -3.8198    1.0000 </r>
       <r>   -3.6298    1.0000 </r>
       <r>   -3.0729    1.0000 </r>
       <r>    1.3457    1.0000 </r>
       <r>    1.4636    1.0000 </r>
       <r>    2.2378    1.0000 </r>
       <r>    2.3663    1.0000 </r>
       <r>    2.4306    1.0000 </r>
       <r>    4.5242    0.0000 </r>
       <r>    5.2915    0.0000 </r>
       <r>    8.1845    0.0000 </r>
       <r>    8.3972    0.0000 </r>
      </set>
      <set comment="kpoint 7">
       <r>  -10.0671    1.0000 </r>
       <r>   -9.3799    1.0000 </r>
       <r>   -4.2629    1.0000 </r>
       <r>   -4.2164    1.0000 </r>
       <r>   -4.1946    1.0000 </r>
       <r>   -4.1181    1.0000 </r>
       <r>   -4.0438    1.0000 </r>
       <r>   -3.9471    1.0000 </r>
       <r>   -3.9127    1.0000 </r>
       <r>   -3.8825    1.0000 </r>
       <r>   -3.7932    1.0000 </r>
       <r>   -3.4975    1.0000 </r>
       <r>   -2.4624    1.0000 </r>
       <r>   -1.0080    1.0000 </r>
       <r>   -0.6127    1.0000 </r>
       <r>    0.2365    1.0000 </r>
       <r>    1.5098    1.0000 </r>
       <r>    1.5357    1.0000 </r>
       <r>    6.6285    0.0000 </r>
       <r>    6.7916    0.0000 </r>
       <r>    7.6825    0.0000 </r>
       <r>    8.1905    0.0000 </r>
      </set>
      <set comment="kpoint 8">
       <r>  -10.6729    1.0000 </r>
       <r>   -9.6704    1.0000 </r>
       <r>   -4.3006    1.0000 </r>
       <r>   -4.2892    1.0000 </r>
       <r>   -4.2650    1.0000 </r>
       <r>   -4.2126    1.0000 </r>
       <r>   -4.1946    1.0000 </r>
       <r>   -3.9006    1.0000 </r>
       <r>   -3.8924    1.0000 </r>
       <r>   -3.8266    1.0000 </r>
       <r>   -3.8125    1.0000 </r>
       <r>   -3.6709    1.0000 </r>
       <r>   -3.0621    1.0000 </r>
       <r>    1.4975    1.0000 </r>
       <r>    1.5944    1.0000 </r>
       <r>    2.3472    1.0000 </r>
       <r>    2.4263    1.0000 </r>
       <r>    2.5469    1.0000 </r>
       <r>    4.3072    0.0000 </r>
       <r>    5.0917    0.0000 </r>
       <r>    8.3104    0.0000 </r>
       <r>    8.6263    0.0000 </r>
      </set>
      <set comment="kpoint 9">
       <r>  -10.6138    1.0000 </r>
       <r>   -9.6362    1.0000 </r>
       <r>   -4.3000    1.0000 </r>
       <r>   -4.2820    1.0000 </r>
       <r>   -4.2546    1.0000 </r>
       <r>   -4.2076    1.0000 </r>
       <r>   -4.1797    1.0000 </r>
       <r>   -3.9067    1.0000 </r>
       <r>   -3.8947    1.0000 </r>
       <r>   -3.8566    1.0000 </r>
       <r>   -3.8109    1.0000 </r>
       <r>   -3.6402    1.0000 </r>
       <r>   -2.9857    1.0000 </r>
       <r>    1.0150    1.0000 </r>
       <r>    1.4149    1.0000 </r>
       <r>    1.8502    1.0000 </r>
       <r>    2.3092    1.0000 </r>
       <r>    2.4562    1.0000 </r>
       <r>    4.8247    0.0000 </r>
       <r>    5.5504    0.0000 </r>
       <r>    8.0533    0.0000 </r>
       <r>    8.4777    0.0000 </r>
      </set>
      <set comment="kpoint 10">
       <r>  -10.4454    1.0000 </r>
       <r>   -9.5451    1.0000 </r>
       <r>   -4.3010    1.0000 </r>
       <r>   -4.2544    1.0000 </r>
       <r>   -4.2326    1.0000 </r>
       <r>   -4.1884    1.0000 </r>
       <r>   -4.1366    1.0000 </r>
       <r>   -3.9224    1.0000 </r>
       <r>   -3.9063    1.0000 </r>
       <r>   -3.8853    1.0000 </r>
       <r>   -3.8064    1.0000 </r>
       <r>   -3.5940    1.0000 </r>
       <r>   -2.7752    1.0000 </r>
       <r>    0.0861    1.0000 </r>
       <r>    0.6810    1.0000 </r>
       <r>    1.1840    1.0000 </r>
       <r>    2.0872    1.0000 </r>
       <r>    2.1819    1.0000 </r>
       <r>    5.6387    0.0000 </r>
       <r>    6.3071    0.0000 </r>
       <r>    7.7129    0.0000 </r>
       <r>    8.6172    0.0000 </r>
      </set>
      <set comment="kpoint 11">
       <r>  -10.5000    1.0000 </r>
       <r>   -9.5736    1.0000 </r>
       <r>   -4.3017    1.0000 </r>
       <r>   -4.2632    1.0000 </r>
       <r>   -4.2384    1.0000 </r>
       <r>   -4.1955    1.0000 </r>
       <r>   -4.1505    1.0000 </r>
       <r>   -3.9177    1.0000 </r>
       <r>   -3.9018    1.0000 </r>
       <r>   -3.8815    1.0000 </r>
       <r>   -3.8078    1.0000 </r>
       <r>   -3.6063    1.0000 </r>
       <r>   -2.8417    1.0000 </r>
       <r>    0.3412    1.0000 </r>
       <r>    0.9292    1.0000 </r>
       <r>    1.3392    1.0000 </r>
       <r>    2.1610    1.0000 </r>
       <r>    2.2727    1.0000 </r>
       <r>    5.4262    0.0000 </r>
       <r>    6.1246    0.0000 </r>
       <r>    7.7691    0.0000 </r>
       <r>    8.6426    0.0000 </r>
      </set>
      <set comment="kpoint 12">
       <r>  -10.2758    1.0000 </r>
       <r>   -9.4642    1.0000 </r>
       <r>   -4.2881    1.0000 </r>
       <r>   -4.2268    1.0000 </r>
       <r>   -4.2243    1.0000 </r>
       <r>   -4.1633    1.0000 </r>
       <r>   -4.0932    1.0000 </r>
       <r>   -3.9325    1.0000 </r>
       <r>   -3.9173    1.0000 </r>
       <r>   -3.8874    1.0000 </r>
       <r>   -3.8015    1.0000 </r>
       <r>   -3.5583    1.0000 </r>
       <r>   -2.5896    1.0000 </r>
       <r>   -0.4841    1.0000 </r>
       <r>   -0.0209    1.0000 </r>
       <r>    0.7449    1.0000 </r>
       <r>    1.8506    1.0000 </r>
       <r>    1.8580    1.0000 </r>
       <r>    6.1821    0.0000 </r>
       <r>    6.8058    0.0000 </r>
       <r>    7.6191    0.0000 </r>
       <r>    8.2394    0.0000 </r>
      </set>
      <set comment="kpoint 13">
       <r>  -10.6494    1.0000 </r>
       <r>   -9.6567    1.0000 </r>
       <r>   -4.2979    1.0000 </r>
       <r>   -4.2855    1.0000 </r>
       <r>   -4.2644    1.0000 </r>
       <r>   -4.2074    1.0000 </r>
       <r>   -4.1918    1.0000 </r>
       <r>   -3.9014    1.0000 </r>
       <r>   -3.8945    1.0000 </r>
       <r>   -3.8333    1.0000 </r>
       <r>   -3.8204    1.0000 </r>
       <r>   -3.6557    1.0000 </r>
       <r>   -3.0316    1.0000 </r>
       <r>    1.3493    1.0000 </r>
       <r>    1.4670    1.0000 </r>
       <r>    2.1879    1.0000 </r>
       <r>    2.3661    1.0000 </r>
       <r>    2.4321    1.0000 </r>
       <r>    4.5596    0.0000 </r>
       <r>    5.2957    0.0000 </r>
       <r>    8.1857    0.0000 </r>
       <r>    8.4167    0.0000 </r>
      </set>
      <set comment="kpoint 14">
       <r>  -10.0646    1.0000 </r>
       <r>   -9.3828    1.0000 </r>
       <r>   -4.2633    1.0000 </r>
       <r>   -4.2164    1.0000 </r>
       <r>   -4.1946    1.0000 </r>
       <r>   -4.1185    1.0000 </r>
       <r>   -4.0444    1.0000 </r>
       <r>   -3.9474    1.0000 </r>
       <r>   -3.9161    1.0000 </r>
       <r>   -3.8804    1.0000 </r>
       <r>   -3.7935    1.0000 </r>
       <r>   -3.5057    1.0000 </r>
       <r>   -2.4494    1.0000 </r>
       <r>   -0.9974    1.0000 </r>
       <r>   -0.6188    1.0000 </r>
       <r>    0.2371    1.0000 </r>
       <r>    1.5102    1.0000 </r>
       <r>    1.5328    1.0000 </r>
       <r>    6.5900    0.0000 </r>
       <r>    6.8154    0.0000 </r>
       <r>    7.6980    0.0000 </r>
       <r>    8.1892    0.0000 </r>
      </set>
      <set comment="kpoint 15">
       <r>  -10.6630    1.0000 </r>
       <r>   -9.6848    1.0000 </r>
       <r>   -4.3013    1.0000 </r>
       <r>   -4.2887    1.0000 </r>
       <r>   -4.2645    1.0000 </r>
       <r>   -4.2139    1.0000 </r>
       <r>   -4.1958    1.0000 </r>
       <r>   -3.8994    1.0000 </r>
       <r>   -3.8913    1.0000 </r>
       <r>   -3.8272    1.0000 </r>
       <r>   -3.8131    1.0000 </r>
       <r>   -3.7386    1.0000 </r>
       <r>   -2.9528    1.0000 </r>
       <r>    1.5074    1.0000 </r>
       <r>    1.6045    1.0000 </r>
       <r>    2.2105    1.0000 </r>
       <r>    2.4141    1.0000 </r>
       <r>    2.5343    1.0000 </r>
       <r>    4.4290    0.0000 </r>
       <r>    5.1043    0.0000 </r>
       <r>    8.3177    0.0000 </r>
       <r>    8.5861    0.0000 </r>
      </set>
      <set comment="kpoint 16">
       <r>  -10.6041    1.0000 </r>
       <r>   -9.6501    1.0000 </r>
       <r>   -4.3012    1.0000 </r>
       <r>   -4.2811    1.0000 </r>
       <r>   -4.2541    1.0000 </r>
       <r>   -4.2091    1.0000 </r>
       <r>   -4.1809    1.0000 </r>
       <r>   -3.9054    1.0000 </r>
       <r>   -3.8943    1.0000 </r>
       <r>   -3.8650    1.0000 </r>
       <r>   -3.8117    1.0000 </r>
       <r>   -3.6934    1.0000 </r>
       <r>   -2.8836    1.0000 </r>
       <r>    1.0266    1.0000 </r>
       <r>    1.4215    1.0000 </r>
       <r>    1.7781    1.0000 </r>
       <r>    2.2769    1.0000 </r>
       <r>    2.4425    1.0000 </r>
       <r>    4.9067    0.0000 </r>
       <r>    5.5626    0.0000 </r>
       <r>    8.0546    0.0000 </r>
       <r>    8.4902    0.0000 </r>
      </set>
      <set comment="kpoint 17">
       <r>  -10.4362    1.0000 </r>
       <r>   -9.5575    1.0000 </r>
       <r>   -4.3021    1.0000 </r>
       <r>   -4.2538    1.0000 </r>
       <r>   -4.2319    1.0000 </r>
       <r>   -4.1899    1.0000 </r>
       <r>   -4.1379    1.0000 </r>
       <r>   -3.9227    1.0000 </r>
       <r>   -3.9133    1.0000 </r>
       <r>   -3.8859    1.0000 </r>
       <r>   -3.8072    1.0000 </r>
       <r>   -3.6322    1.0000 </r>
       <r>   -2.6918    1.0000 </r>
       <r>    0.1018    1.0000 </r>
       <r>    0.6573    1.0000 </r>
       <r>    1.1724    1.0000 </r>
       <r>    2.0661    1.0000 </r>
       <r>    2.1657    1.0000 </r>
       <r>    5.6702    0.0000 </r>
       <r>    6.3194    0.0000 </r>
       <r>    7.7261    0.0000 </r>
       <r>    8.6132    0.0000 </r>
      </set>
      <set comment="kpoint 18">
       <r>  -10.4907    1.0000 </r>
       <r>   -9.5865    1.0000 </r>
       <r>   -4.3028    1.0000 </r>
       <r>   -4.2625    1.0000 </r>
       <r>   -4.2378    1.0000 </r>
       <r>   -4.1971    1.0000 </r>
       <r>   -4.1518    1.0000 </r>
       <r>   -3.9169    1.0000 </r>
       <r>   -3.9075    1.0000 </r>
       <r>   -3.8847    1.0000 </r>
       <r>   -3.8086    1.0000 </r>
       <r>   -3.6482    1.0000 </r>
       <r>   -2.7525    1.0000 </r>
       <r>    0.3555    1.0000 </r>
       <r>    0.9091    1.0000 </r>
       <r>    1.3190    1.0000 </r>
       <r>    2.1347    1.0000 </r>
       <r>    2.2571    1.0000 </r>
       <r>    5.4724    0.0000 </r>
       <r>    6.1363    0.0000 </r>
       <r>    7.7779    0.0000 </r>
       <r>    8.6460    0.0000 </r>
      </set>
      <set comment="kpoint 19">
       <r>  -10.2672    1.0000 </r>
       <r>   -9.4750    1.0000 </r>
       <r>   -4.2893    1.0000 </r>
       <r>   -4.2266    1.0000 </r>
       <r>   -4.2237    1.0000 </r>
       <r>   -4.1646    1.0000 </r>
       <r>   -4.0947    1.0000 </r>
       <r>   -3.9318    1.0000 </r>
       <r>   -3.9278    1.0000 </r>
       <r>   -3.8843    1.0000 </r>
       <r>   -3.8024    1.0000 </r>
       <r>   -3.5881    1.0000 </r>
       <r>   -2.5242    1.0000 </r>
       <r>   -0.4613    1.0000 </r>
       <r>   -0.0434    1.0000 </r>
       <r>    0.7389    1.0000 </r>
       <r>    1.8367    1.0000 </r>
       <r>    1.8487    1.0000 </r>
       <r>    6.1718    0.0000 </r>
       <r>    6.8155    0.0000 </r>
       <r>    7.6452    0.0000 </r>
       <r>    8.2447    0.0000 </r>
      </set>
      <set comment="kpoint 20">
       <r>  -10.6396    1.0000 </r>
       <r>   -9.6710    1.0000 </r>
       <r>   -4.2989    1.0000 </r>
       <r>   -4.2848    1.0000 </r>
       <r>   -4.2637    1.0000 </r>
       <r>   -4.2087    1.0000 </r>
       <r>   -4.1930    1.0000 </r>
       <r>   -3.9002    1.0000 </r>
       <r>   -3.8933    1.0000 </r>
       <r>   -3.8393    1.0000 </r>
       <r>   -3.8221    1.0000 </r>
       <r>   -3.7145    1.0000 </r>
       <r>   -2.9252    1.0000 </r>
       <r>    1.3600    1.0000 </r>
       <r>    1.4772    1.0000 </r>
       <r>    2.0617    1.0000 </r>
       <r>    2.3569    1.0000 </r>
       <r>    2.4291    1.0000 </r>
       <r>    4.6587    0.0000 </r>
       <r>    5.3080    0.0000 </r>
       <r>    8.1879    0.0000 </r>
       <r>    8.4089    0.0000 </r>
      </set>
      <set comment="kpoint 21">
       <r>  -10.0571    1.0000 </r>
       <r>   -9.3913    1.0000 </r>
       <r>   -4.2646    1.0000 </r>
       <r>   -4.2162    1.0000 </r>
       <r>   -4.1945    1.0000 </r>
       <r>   -4.1194    1.0000 </r>
       <r>   -4.0462    1.0000 </r>
       <r>   -3.9504    1.0000 </r>
       <r>   -3.9222    1.0000 </r>
       <r>   -3.8759    1.0000 </r>
       <r>   -3.7943    1.0000 </r>
       <r>   -3.5281    1.0000 </r>
       <r>   -2.4126    1.0000 </r>
       <r>   -0.9677    1.0000 </r>
       <r>   -0.6352    1.0000 </r>
       <r>    0.2401    1.0000 </r>
       <r>    1.4967    1.0000 </r>
       <r>    1.5371    1.0000 </r>
       <r>    6.5081    0.0000 </r>
       <r>    6.8582    0.0000 </r>
       <r>    7.7394    0.0000 </r>
       <r>    8.1853    0.0000 </r>
      </set>
      <set comment="kpoint 22">
       <r>  -10.2187    1.0000 </r>
       <r>  -10.2187    1.0000 </r>
       <r>   -4.2702    1.0000 </r>
       <r>   -4.2702    1.0000 </r>
       <r>   -4.2587    1.0000 </r>
       <r>   -4.2587    1.0000 </r>
       <r>   -4.2366    1.0000 </r>
       <r>   -4.2366    1.0000 </r>
       <r>   -3.8574    1.0000 </r>
       <r>   -3.8574    1.0000 </r>
       <r>   -3.8461    1.0000 </r>
       <r>   -3.8461    1.0000 </r>
       <r>   -0.5951    1.0000 </r>
       <r>   -0.5951    1.0000 </r>
       <r>    1.9371    1.0000 </r>
       <r>    1.9371    1.0000 </r>
       <r>    2.0437    1.0000 </r>
       <r>    2.0437    1.0000 </r>
       <r>    5.5949    0.0000 </r>
       <r>    5.5949    0.0000 </r>
       <r>    8.8021    0.0000 </r>
       <r>    8.8021    0.0000 </r>
      </set>
      <set comment="kpoint 23">
       <r>  -10.2126    1.0000 </r>
       <r>  -10.2126    1.0000 </r>
       <r>   -4.2730    1.0000 </r>
       <r>   -4.2730    1.0000 </r>
       <r>   -4.2550    1.0000 </r>
       <r>   -4.2550    1.0000 </r>
       <r>   -4.2350    1.0000 </r>
       <r>   -4.2350    1.0000 </r>
       <r>   -3.8572    1.0000 </r>
       <r>   -3.8572    1.0000 </r>
       <r>   -3.8460    1.0000 </r>
       <r>   -3.8460    1.0000 </r>
       <r>   -0.5963    1.0000 </r>
       <r>   -0.5963    1.0000 </r>
       <r>    1.8907    1.0000 </r>
       <r>    1.8907    1.0000 </r>
       <r>    2.0215    1.0000 </r>
       <r>    2.0215    1.0000 </r>
       <r>    5.6541    0.0000 </r>
       <r>    5.6541    0.0000 </r>
       <r>    8.6328    0.0000 </r>
       <r>    8.6328    0.0000 </r>
      </set>
      <set comment="kpoint 24">
       <r>  -10.1947    1.0000 </r>
       <r>  -10.1947    1.0000 </r>
       <r>   -4.2780    1.0000 </r>
       <r>   -4.2780    1.0000 </r>
       <r>   -4.2476    1.0000 </r>
       <r>   -4.2476    1.0000 </r>
       <r>   -4.2303    1.0000 </r>
       <r>   -4.2303    1.0000 </r>
       <r>   -3.8569    1.0000 </r>
       <r>   -3.8569    1.0000 </r>
       <r>   -3.8459    1.0000 </r>
       <r>   -3.8459    1.0000 </r>
       <r>   -0.6013    1.0000 </r>
       <r>   -0.6013    1.0000 </r>
       <r>    1.7499    1.0000 </r>
       <r>    1.7499    1.0000 </r>
       <r>    1.9704    1.0000 </r>
       <r>    1.9704    1.0000 </r>
       <r>    5.8164    0.0000 </r>
       <r>    5.8164    0.0000 </r>
       <r>    8.3894    0.0000 </r>
       <r>    8.3894    0.0000 </r>
      </set>
      <set comment="kpoint 25">
       <r>  -10.1652    1.0000 </r>
       <r>  -10.1652    1.0000 </r>
       <r>   -4.2828    1.0000 </r>
       <r>   -4.2828    1.0000 </r>
       <r>   -4.2382    1.0000 </r>
       <r>   -4.2382    1.0000 </r>
       <r>   -4.2229    1.0000 </r>
       <r>   -4.2229    1.0000 </r>
       <r>   -3.8562    1.0000 </r>
       <r>   -3.8562    1.0000 </r>
       <r>   -3.8457    1.0000 </r>
       <r>   -3.8457    1.0000 </r>
       <r>   -0.6143    1.0000 </r>
       <r>   -0.6143    1.0000 </r>
       <r>    1.5400    1.0000 </r>
       <r>    1.5400    1.0000 </r>
       <r>    1.8990    1.0000 </r>
       <r>    1.8990    1.0000 </r>
       <r>    6.0427    0.0000 </r>
       <r>    6.0427    0.0000 </r>
       <r>    8.1523    0.0000 </r>
       <r>    8.1523    0.0000 </r>
      </set>
      <set comment="kpoint 26">
       <r>  -10.1250    1.0000 </r>
       <r>  -10.1250    1.0000 </r>
       <r>   -4.2870    1.0000 </r>
       <r>   -4.2870    1.0000 </r>
       <r>   -4.2272    1.0000 </r>
       <r>   -4.2272    1.0000 </r>
       <r>   -4.2129    1.0000 </r>
       <r>   -4.2129    1.0000 </r>
       <r>   -3.8550    1.0000 </r>
       <r>   -3.8550    1.0000 </r>
       <r>   -3.8452    1.0000 </r>
       <r>   -3.8452    1.0000 </r>
       <r>   -0.6432    1.0000 </r>
       <r>   -0.6432    1.0000 </r>
       <r>    1.2998    1.0000 </r>
       <r>    1.2998    1.0000 </r>
       <r>    1.8093    1.0000 </r>
       <r>    1.8093    1.0000 </r>
       <r>    6.2789    0.0000 </r>
       <r>    6.2789    0.0000 </r>
       <r>    7.9522    0.0000 </r>
       <r>    7.9522    0.0000 </r>
      </set>
      <set comment="kpoint 27">
       <r>  -10.0750    1.0000 </r>
       <r>  -10.0750    1.0000 </r>
       <r>   -4.2904    1.0000 </r>
       <r>   -4.2904    1.0000 </r>
       <r>   -4.2144    1.0000 </r>
       <r>   -4.2144    1.0000 </r>
       <r>   -4.2008    1.0000 </r>
       <r>   -4.2008    1.0000 </r>
       <r>   -3.8532    1.0000 </r>
       <r>   -3.8532    1.0000 </r>
       <r>   -3.8441    1.0000 </r>
       <r>   -3.8441    1.0000 </r>
       <r>   -0.7000    1.0000 </r>
       <r>   -0.7000    1.0000 </r>
       <r>    1.0652    1.0000 </r>
       <r>    1.0652    1.0000 </r>
       <r>    1.7050    1.0000 </r>
       <r>    1.7050    1.0000 </r>
       <r>    6.4562    0.0000 </r>
       <r>    6.4562    0.0000 </r>
       <r>    7.8317    0.0000 </r>
       <r>    7.8317    0.0000 </r>
      </set>
      <set comment="kpoint 28">
       <r>  -10.0168    1.0000 </r>
       <r>  -10.0168    1.0000 </r>
       <r>   -4.2928    1.0000 </r>
       <r>   -4.2928    1.0000 </r>
       <r>   -4.1999    1.0000 </r>
       <r>   -4.1999    1.0000 </r>
       <r>   -4.1866    1.0000 </r>
       <r>   -4.1866    1.0000 </r>
       <r>   -3.8506    1.0000 </r>
       <r>   -3.8506    1.0000 </r>
       <r>   -3.8422    1.0000 </r>
       <r>   -3.8422    1.0000 </r>
       <r>   -0.7993    1.0000 </r>
       <r>   -0.7993    1.0000 </r>
       <r>    0.8661    1.0000 </r>
       <r>    0.8661    1.0000 </r>
       <r>    1.5912    1.0000 </r>
       <r>    1.5912    1.0000 </r>
       <r>    6.5100    0.0000 </r>
       <r>    6.5100    0.0000 </r>
       <r>    7.8186    0.0000 </r>
       <r>    7.8186    0.0000 </r>
      </set>
      <set comment="kpoint 29">
       <r>   -9.9520    1.0000 </r>
       <r>   -9.9520    1.0000 </r>
       <r>   -4.2941    1.0000 </r>
       <r>   -4.2941    1.0000 </r>
       <r>   -4.1833    1.0000 </r>
       <r>   -4.1833    1.0000 </r>
       <r>   -4.1710    1.0000 </r>
       <r>   -4.1710    1.0000 </r>
       <r>   -3.8473    1.0000 </r>
       <r>   -3.8473    1.0000 </r>
       <r>   -3.8389    1.0000 </r>
       <r>   -3.8389    1.0000 </r>
       <r>   -0.9515    1.0000 </r>
       <r>   -0.9515    1.0000 </r>
       <r>    0.7232    1.0000 </r>
       <r>    0.7232    1.0000 </r>
       <r>    1.4727    1.0000 </r>
       <r>    1.4727    1.0000 </r>
       <r>    6.4431    0.0000 </r>
       <r>    6.4431    0.0000 </r>
       <r>    7.8680    0.0000 </r>
       <r>    7.8680    0.0000 </r>
      </set>
      <set comment="kpoint 30">
       <r>   -9.8827    1.0000 </r>
       <r>   -9.8827    1.0000 </r>
       <r>   -4.2944    1.0000 </r>
       <r>   -4.2944    1.0000 </r>
       <r>   -4.1649    1.0000 </r>
       <r>   -4.1649    1.0000 </r>
       <r>   -4.1538    1.0000 </r>
       <r>   -4.1538    1.0000 </r>
       <r>   -3.8435    1.0000 </r>
       <r>   -3.8435    1.0000 </r>
       <r>   -3.8331    1.0000 </r>
       <r>   -3.8331    1.0000 </r>
       <r>   -1.1543    1.0000 </r>
       <r>   -1.1543    1.0000 </r>
       <r>    0.6410    1.0000 </r>
       <r>    0.6410    1.0000 </r>
       <r>    1.3544    1.0000 </r>
       <r>    1.3544    1.0000 </r>
       <r>    6.3120    0.0000 </r>
       <r>    6.3120    0.0000 </r>
       <r>    7.8918    0.0000 </r>
       <r>    7.8918    0.0000 </r>
      </set>
      <set comment="kpoint 31">
       <r>   -9.8112    1.0000 </r>
       <r>   -9.8112    1.0000 </r>
       <r>   -4.2937    1.0000 </r>
       <r>   -4.2937    1.0000 </r>
       <r>   -4.1463    1.0000 </r>
       <r>   -4.1463    1.0000 </r>
       <r>   -4.1338    1.0000 </r>
       <r>   -4.1338    1.0000 </r>
       <r>   -3.8393    1.0000 </r>
       <r>   -3.8393    1.0000 </r>
       <r>   -3.8240    1.0000 </r>
       <r>   -3.8240    1.0000 </r>
       <r>   -1.3928    1.0000 </r>
       <r>   -1.3928    1.0000 </r>
       <r>    0.6089    1.0000 </r>
       <r>    0.6089    1.0000 </r>
       <r>    1.2402    1.0000 </r>
       <r>    1.2402    1.0000 </r>
       <r>    6.1611    0.0000 </r>
       <r>    6.1611    0.0000 </r>
       <r>    7.8513    0.0000 </r>
       <r>    7.8513    0.0000 </r>
      </set>
      <set comment="kpoint 32">
       <r>   -9.7404    1.0000 </r>
       <r>   -9.7404    1.0000 </r>
       <r>   -4.2924    1.0000 </r>
       <r>   -4.2924    1.0000 </r>
       <r>   -4.1302    1.0000 </r>
       <r>   -4.1302    1.0000 </r>
       <r>   -4.1091    1.0000 </r>
       <r>   -4.1091    1.0000 </r>
       <r>   -3.8346    1.0000 </r>
       <r>   -3.8346    1.0000 </r>
       <r>   -3.8101    1.0000 </r>
       <r>   -3.8101    1.0000 </r>
       <r>   -1.6481    1.0000 </r>
       <r>   -1.6481    1.0000 </r>
       <r>    0.6115    1.0000 </r>
       <r>    0.6115    1.0000 </r>
       <r>    1.1339    1.0000 </r>
       <r>    1.1339    1.0000 </r>
       <r>    6.0129    0.0000 </r>
       <r>    6.0129    0.0000 </r>
       <r>    7.7602    0.0000 </r>
       <r>    7.7602    0.0000 </r>
      </set>
      <set comment="kpoint 33">
       <r>   -9.6731    1.0000 </r>
       <r>   -9.6731    1.0000 </r>
       <r>   -4.2906    1.0000 </r>
       <r>   -4.2906    1.0000 </r>
       <r>   -4.1169    1.0000 </r>
       <r>   -4.1169    1.0000 </r>
       <r>   -4.0812    1.0000 </r>
       <r>   -4.0812    1.0000 </r>
       <r>   -3.8295    1.0000 </r>
       <r>   -3.8295    1.0000 </r>
       <r>   -3.7899    1.0000 </r>
       <r>   -3.7899    1.0000 </r>
       <r>   -1.9037    1.0000 </r>
       <r>   -1.9037    1.0000 </r>
       <r>    0.6340    1.0000 </r>
       <r>    0.6340    1.0000 </r>
       <r>    1.0387    1.0000 </r>
       <r>    1.0387    1.0000 </r>
       <r>    5.8784    0.0000 </r>
       <r>    5.8784    0.0000 </r>
       <r>    7.6442    0.0000 </r>
       <r>    7.6442    0.0000 </r>
      </set>
      <set comment="kpoint 34">
       <r>   -9.6125    1.0000 </r>
       <r>   -9.6125    1.0000 </r>
       <r>   -4.2888    1.0000 </r>
       <r>   -4.2888    1.0000 </r>
       <r>   -4.1060    1.0000 </r>
       <r>   -4.1060    1.0000 </r>
       <r>   -4.0531    1.0000 </r>
       <r>   -4.0531    1.0000 </r>
       <r>   -3.8242    1.0000 </r>
       <r>   -3.8242    1.0000 </r>
       <r>   -3.7611    1.0000 </r>
       <r>   -3.7611    1.0000 </r>
       <r>   -2.1459    1.0000 </r>
       <r>   -2.1459    1.0000 </r>
       <r>    0.6657    1.0000 </r>
       <r>    0.6657    1.0000 </r>
       <r>    0.9575    1.0000 </r>
       <r>    0.9575    1.0000 </r>
       <r>    5.7632    0.0000 </r>
       <r>    5.7632    0.0000 </r>
       <r>    7.5259    0.0000 </r>
       <r>    7.5259    0.0000 </r>
      </set>
      <set comment="kpoint 35">
       <r>   -9.5615    1.0000 </r>
       <r>   -9.5615    1.0000 </r>
       <r>   -4.2871    1.0000 </r>
       <r>   -4.2871    1.0000 </r>
       <r>   -4.0975    1.0000 </r>
       <r>   -4.0975    1.0000 </r>
       <r>   -4.0283    1.0000 </r>
       <r>   -4.0283    1.0000 </r>
       <r>   -3.8193    1.0000 </r>
       <r>   -3.8193    1.0000 </r>
       <r>   -3.7229    1.0000 </r>
       <r>   -3.7229    1.0000 </r>
       <r>   -2.3624    1.0000 </r>
       <r>   -2.3624    1.0000 </r>
       <r>    0.6979    1.0000 </r>
       <r>    0.6979    1.0000 </r>
       <r>    0.8928    1.0000 </r>
       <r>    0.8928    1.0000 </r>
       <r>    5.6710    0.0000 </r>
       <r>    5.6710    0.0000 </r>
       <r>    7.4206    0.0000 </r>
       <r>    7.4206    0.0000 </r>
      </set>
      <set comment="kpoint 36">
       <r>   -9.5228    1.0000 </r>
       <r>   -9.5228    1.0000 </r>
       <r>   -4.2858    1.0000 </r>
       <r>   -4.2858    1.0000 </r>
       <r>   -4.0915    1.0000 </r>
       <r>   -4.0915    1.0000 </r>
       <r>   -4.0096    1.0000 </r>
       <r>   -4.0096    1.0000 </r>
       <r>   -3.8153    1.0000 </r>
       <r>   -3.8153    1.0000 </r>
       <r>   -3.6787    1.0000 </r>
       <r>   -3.6787    1.0000 </r>
       <r>   -2.5398    1.0000 </r>
       <r>   -2.5398    1.0000 </r>
       <r>    0.7240    1.0000 </r>
       <r>    0.7240    1.0000 </r>
       <r>    0.8468    1.0000 </r>
       <r>    0.8468    1.0000 </r>
       <r>    5.6038    0.0000 </r>
       <r>    5.6038    0.0000 </r>
       <r>    7.3386    0.0000 </r>
       <r>    7.3386    0.0000 </r>
      </set>
      <set comment="kpoint 37">
       <r>   -9.4987    1.0000 </r>
       <r>   -9.4987    1.0000 </r>
       <r>   -4.2850    1.0000 </r>
       <r>   -4.2850    1.0000 </r>
       <r>   -4.0879    1.0000 </r>
       <r>   -4.0879    1.0000 </r>
       <r>   -3.9983    1.0000 </r>
       <r>   -3.9983    1.0000 </r>
       <r>   -3.8126    1.0000 </r>
       <r>   -3.8126    1.0000 </r>
       <r>   -3.6398    1.0000 </r>
       <r>   -3.6398    1.0000 </r>
       <r>   -2.6606    1.0000 </r>
       <r>   -2.6606    1.0000 </r>
       <r>    0.7391    1.0000 </r>
       <r>    0.7391    1.0000 </r>
       <r>    0.8211    1.0000 </r>
       <r>    0.8211    1.0000 </r>
       <r>    5.5628    0.0000 </r>
       <r>    5.5628    0.0000 </r>
       <r>    7.2870    0.0000 </r>
       <r>    7.2870    0.0000 </r>
      </set>
      <set comment="kpoint 38">
       <r>   -9.4904    1.0000 </r>
       <r>   -9.4904    1.0000 </r>
       <r>   -4.2847    1.0000 </r>
       <r>   -4.2847    1.0000 </r>
       <r>   -4.0867    1.0000 </r>
       <r>   -4.0867    1.0000 </r>
       <r>   -3.9946    1.0000 </r>
       <r>   -3.9946    1.0000 </r>
       <r>   -3.8117    1.0000 </r>
       <r>   -3.8117    1.0000 </r>
       <r>   -3.6237    1.0000 </r>
       <r>   -3.6237    1.0000 </r>
       <r>   -2.7043    1.0000 </r>
       <r>   -2.7043    1.0000 </r>
       <r>    0.7432    1.0000 </r>
       <r>    0.7432    1.0000 </r>
       <r>    0.8136    1.0000 </r>
       <r>    0.8136    1.0000 </r>
       <r>    5.5493    0.0000 </r>
       <r>    5.5493    0.0000 </r>
       <r>    7.2695    0.0000 </r>
       <r>    7.2695    0.0000 </r>
      </set>
      <set comment="kpoint 39">
       <r>   -9.5259    1.0000 </r>
       <r>   -9.4558    1.0000 </r>
       <r>   -4.2944    1.0000 </r>
       <r>   -4.2679    1.0000 </r>
       <r>   -4.1050    1.0000 </r>
       <r>   -4.0685    1.0000 </r>
       <r>   -4.0094    1.0000 </r>
       <r>   -3.9794    1.0000 </r>
       <r>   -3.8148    1.0000 </r>
       <r>   -3.8080    1.0000 </r>
       <r>   -3.6319    1.0000 </r>
       <r>   -3.6170    1.0000 </r>
       <r>   -2.7771    1.0000 </r>
       <r>   -2.6091    1.0000 </r>
       <r>    0.5202    1.0000 </r>
       <r>    0.6650    1.0000 </r>
       <r>    0.9337    1.0000 </r>
       <r>    0.9396    1.0000 </r>
       <r>    5.4039    0.0000 </r>
       <r>    5.7067    0.0000 </r>
       <r>    7.2380    0.0000 </r>
       <r>    7.4006    0.0000 </r>
      </set>
      <set comment="kpoint 40">
       <r>   -9.5608    1.0000 </r>
       <r>   -9.4234    1.0000 </r>
       <r>   -4.2981    1.0000 </r>
       <r>   -4.2442    1.0000 </r>
       <r>   -4.1225    1.0000 </r>
       <r>   -4.0514    1.0000 </r>
       <r>   -4.0225    1.0000 </r>
       <r>   -3.9652    1.0000 </r>
       <r>   -3.8174    1.0000 </r>
       <r>   -3.8037    1.0000 </r>
       <r>   -3.6402    1.0000 </r>
       <r>   -3.6138    1.0000 </r>
       <r>   -2.8226    1.0000 </r>
       <r>   -2.4964    1.0000 </r>
       <r>    0.2504    1.0000 </r>
       <r>    0.5426    1.0000 </r>
       <r>    1.0291    1.0000 </r>
       <r>    1.0760    1.0000 </r>
       <r>    5.3309    0.0000 </r>
       <r>    5.8054    0.0000 </r>
       <r>    7.3659    0.0000 </r>
       <r>    7.5731    0.0000 </r>
      </set>
      <set comment="kpoint 41">
       <r>   -9.5935    1.0000 </r>
       <r>   -9.3943    1.0000 </r>
       <r>   -4.2970    1.0000 </r>
       <r>   -4.2144    1.0000 </r>
       <r>   -4.1383    1.0000 </r>
       <r>   -4.0416    1.0000 </r>
       <r>   -4.0280    1.0000 </r>
       <r>   -3.9534    1.0000 </r>
       <r>   -3.8194    1.0000 </r>
       <r>   -3.7990    1.0000 </r>
       <r>   -3.6477    1.0000 </r>
       <r>   -3.6163    1.0000 </r>
       <r>   -2.8372    1.0000 </r>
       <r>   -2.3715    1.0000 </r>
       <r>   -0.0352    1.0000 </r>
       <r>    0.4318    1.0000 </r>
       <r>    1.0415    1.0000 </r>
       <r>    1.2071    1.0000 </r>
       <r>    5.3587    0.0000 </r>
       <r>    5.8206    0.0000 </r>
       <r>    7.6604    0.0000 </r>
       <r>    7.7266    0.0000 </r>
      </set>
      <set comment="kpoint 42">
       <r>   -9.6225    1.0000 </r>
       <r>   -9.3696    1.0000 </r>
       <r>   -4.2930    1.0000 </r>
       <r>   -4.1809    1.0000 </r>
       <r>   -4.1514    1.0000 </r>
       <r>   -4.0477    1.0000 </r>
       <r>   -4.0176    1.0000 </r>
       <r>   -3.9455    1.0000 </r>
       <r>   -3.8210    1.0000 </r>
       <r>   -3.7941    1.0000 </r>
       <r>   -3.6542    1.0000 </r>
       <r>   -3.6254    1.0000 </r>
       <r>   -2.8202    1.0000 </r>
       <r>   -2.2415    1.0000 </r>
       <r>   -0.3162    1.0000 </r>
       <r>    0.3366    1.0000 </r>
       <r>    0.9832    1.0000 </r>
       <r>    1.3268    1.0000 </r>
       <r>    5.4884    0.0000 </r>
       <r>    5.7846    0.0000 </r>
       <r>    7.7937    0.0000 </r>
       <r>    8.0717    0.0000 </r>
      </set>
      <set comment="kpoint 43">
       <r>   -9.6466    1.0000 </r>
       <r>   -9.3499    1.0000 </r>
       <r>   -4.2877    1.0000 </r>
       <r>   -4.1651    1.0000 </r>
       <r>   -4.1426    1.0000 </r>
       <r>   -4.0549    1.0000 </r>
       <r>   -4.0068    1.0000 </r>
       <r>   -3.9428    1.0000 </r>
       <r>   -3.8221    1.0000 </r>
       <r>   -3.7895    1.0000 </r>
       <r>   -3.6593    1.0000 </r>
       <r>   -3.6391    1.0000 </r>
       <r>   -2.7772    1.0000 </r>
       <r>   -2.1163    1.0000 </r>
       <r>   -0.5738    1.0000 </r>
       <r>    0.2596    1.0000 </r>
       <r>    0.8825    1.0000 </r>
       <r>    1.4285    1.0000 </r>
       <r>    5.6992    0.0000 </r>
       <r>    5.7332    0.0000 </r>
       <r>    7.7189    0.0000 </r>
       <r>    8.5417    0.0000 </r>
      </set>
      <set comment="kpoint 44">
       <r>   -9.6646    1.0000 </r>
       <r>   -9.3355    1.0000 </r>
       <r>   -4.2828    1.0000 </r>
       <r>   -4.1724    1.0000 </r>
       <r>   -4.1097    1.0000 </r>
       <r>   -4.0601    1.0000 </r>
       <r>   -3.9987    1.0000 </r>
       <r>   -3.9457    1.0000 </r>
       <r>   -3.8229    1.0000 </r>
       <r>   -3.7857    1.0000 </r>
       <r>   -3.6630    1.0000 </r>
       <r>   -3.6536    1.0000 </r>
       <r>   -2.7210    1.0000 </r>
       <r>   -2.0085    1.0000 </r>
       <r>   -0.7871    1.0000 </r>
       <r>    0.2030    1.0000 </r>
       <r>    0.7748    1.0000 </r>
       <r>    1.5065    1.0000 </r>
       <r>    5.6874    0.0000 </r>
       <r>    5.9606    0.0000 </r>
       <r>    7.5204    0.0000 </r>
       <r>    9.0195    0.0000 </r>
      </set>
      <set comment="kpoint 45">
       <r>   -9.6758    1.0000 </r>
       <r>   -9.3268    1.0000 </r>
       <r>   -4.2794    1.0000 </r>
       <r>   -4.1773    1.0000 </r>
       <r>   -4.0836    1.0000 </r>
       <r>   -4.0632    1.0000 </r>
       <r>   -3.9937    1.0000 </r>
       <r>   -3.9519    1.0000 </r>
       <r>   -3.8233    1.0000 </r>
       <r>   -3.7831    1.0000 </r>
       <r>   -3.6653    1.0000 </r>
       <r>   -3.6644    1.0000 </r>
       <r>   -2.6720    1.0000 </r>
       <r>   -1.9343    1.0000 </r>
       <r>   -0.9317    1.0000 </r>
       <r>    0.1685    1.0000 </r>
       <r>    0.6932    1.0000 </r>
       <r>    1.5556    1.0000 </r>
       <r>    5.6570    0.0000 </r>
       <r>    6.2209    0.0000 </r>
       <r>    7.2781    0.0000 </r>
       <r>    9.0081    0.0000 </r>
      </set>
      <set comment="kpoint 46">
       <r>   -9.6795    1.0000 </r>
       <r>   -9.3239    1.0000 </r>
       <r>   -4.2781    1.0000 </r>
       <r>   -4.1790    1.0000 </r>
       <r>   -4.0732    1.0000 </r>
       <r>   -4.0643    1.0000 </r>
       <r>   -3.9920    1.0000 </r>
       <r>   -3.9554    1.0000 </r>
       <r>   -3.8234    1.0000 </r>
       <r>   -3.7823    1.0000 </r>
       <r>   -3.6683    1.0000 </r>
       <r>   -3.6661    1.0000 </r>
       <r>   -2.6522    1.0000 </r>
       <r>   -1.9076    1.0000 </r>
       <r>   -0.9835    1.0000 </r>
       <r>    0.1569    1.0000 </r>
       <r>    0.6628    1.0000 </r>
       <r>    1.5724    1.0000 </r>
       <r>    5.6465    0.0000 </r>
       <r>    6.3550    0.0000 </r>
       <r>    7.1471    0.0000 </r>
       <r>    8.9720    0.0000 </r>
      </set>
      <set comment="kpoint 47">
       <r>   -9.6954    1.0000 </r>
       <r>   -9.3229    1.0000 </r>
       <r>   -4.2785    1.0000 </r>
       <r>   -4.1794    1.0000 </r>
       <r>   -4.0941    1.0000 </r>
       <r>   -4.0457    1.0000 </r>
       <r>   -3.9939    1.0000 </r>
       <r>   -3.9586    1.0000 </r>
       <r>   -3.8251    1.0000 </r>
       <r>   -3.7828    1.0000 </r>
       <r>   -3.7478    1.0000 </r>
       <r>   -3.5840    1.0000 </r>
       <r>   -2.6558    1.0000 </r>
       <r>   -1.8625    1.0000 </r>
       <r>   -1.0017    1.0000 </r>
       <r>    0.1682    1.0000 </r>
       <r>    0.6975    1.0000 </r>
       <r>    1.5809    1.0000 </r>
       <r>    5.6542    0.0000 </r>
       <r>    6.3560    0.0000 </r>
       <r>    7.1653    0.0000 </r>
       <r>    8.9771    0.0000 </r>
      </set>
      <set comment="kpoint 48">
       <r>   -9.7398    1.0000 </r>
       <r>   -9.3220    1.0000 </r>
       <r>   -4.2795    1.0000 </r>
       <r>   -4.1807    1.0000 </r>
       <r>   -4.1203    1.0000 </r>
       <r>   -4.0264    1.0000 </r>
       <r>   -3.9995    1.0000 </r>
       <r>   -3.9693    1.0000 </r>
       <r>   -3.8300    1.0000 </r>
       <r>   -3.8137    1.0000 </r>
       <r>   -3.7842    1.0000 </r>
       <r>   -3.5150    1.0000 </r>
       <r>   -2.6506    1.0000 </r>
       <r>   -1.7443    1.0000 </r>
       <r>   -1.0430    1.0000 </r>
       <r>    0.2017    1.0000 </r>
       <r>    0.7937    1.0000 </r>
       <r>    1.6061    1.0000 </r>
       <r>    5.6777    0.0000 </r>
       <r>    6.3579    0.0000 </r>
       <r>    7.2192    0.0000 </r>
       <r>    8.9919    0.0000 </r>
      </set>
      <set comment="kpoint 49">
       <r>   -9.8060    1.0000 </r>
       <r>   -9.3255    1.0000 </r>
       <r>   -4.2815    1.0000 </r>
       <r>   -4.1831    1.0000 </r>
       <r>   -4.1463    1.0000 </r>
       <r>   -4.0137    1.0000 </r>
       <r>   -4.0079    1.0000 </r>
       <r>   -3.9872    1.0000 </r>
       <r>   -3.8589    1.0000 </r>
       <r>   -3.8369    1.0000 </r>
       <r>   -3.7865    1.0000 </r>
       <r>   -3.4758    1.0000 </r>
       <r>   -2.6139    1.0000 </r>
       <r>   -1.5930    1.0000 </r>
       <r>   -1.0671    1.0000 </r>
       <r>    0.2565    1.0000 </r>
       <r>    0.9340    1.0000 </r>
       <r>    1.6474    1.0000 </r>
       <r>    5.7171    0.0000 </r>
       <r>    6.3574    0.0000 </r>
       <r>    7.3077    0.0000 </r>
       <r>    9.0153    0.0000 </r>
      </set>
      <set comment="kpoint 50">
       <r>   -9.8873    1.0000 </r>
       <r>   -9.3366    1.0000 </r>
       <r>   -4.2847    1.0000 </r>
       <r>   -4.1878    1.0000 </r>
       <r>   -4.1691    1.0000 </r>
       <r>   -4.0278    1.0000 </r>
       <r>   -4.0227    1.0000 </r>
       <r>   -3.9865    1.0000 </r>
       <r>   -3.8840    1.0000 </r>
       <r>   -3.8460    1.0000 </r>
       <r>   -3.7893    1.0000 </r>
       <r>   -3.4685    1.0000 </r>
       <r>   -2.5501    1.0000 </r>
       <r>   -1.4611    1.0000 </r>
       <r>   -1.0061    1.0000 </r>
       <r>    0.3311    1.0000 </r>
       <r>    1.1005    1.0000 </r>
       <r>    1.7033    1.0000 </r>
       <r>    5.7725    0.0000 </r>
       <r>    6.3479    0.0000 </r>
       <r>    7.4279    0.0000 </r>
       <r>    9.0460    0.0000 </r>
      </set>
      <set comment="kpoint 51">
       <r>   -9.9780    1.0000 </r>
       <r>   -9.3561    1.0000 </r>
       <r>   -4.2888    1.0000 </r>
       <r>   -4.1978    1.0000 </r>
       <r>   -4.1840    1.0000 </r>
       <r>   -4.0601    1.0000 </r>
       <r>   -4.0383    1.0000 </r>
       <r>   -3.9742    1.0000 </r>
       <r>   -3.8975    1.0000 </r>
       <r>   -3.8558    1.0000 </r>
       <r>   -3.7924    1.0000 </r>
       <r>   -3.4819    1.0000 </r>
       <r>   -2.4940    1.0000 </r>
       <r>   -1.3578    1.0000 </r>
       <r>   -0.8224    1.0000 </r>
       <r>    0.4237    1.0000 </r>
       <r>    1.2787    1.0000 </r>
       <r>    1.7722    1.0000 </r>
       <r>    5.8436    0.0000 </r>
       <r>    6.3218    0.0000 </r>
       <r>    7.5737    0.0000 </r>
       <r>    8.9166    0.0000 </r>
      </set>
      <set comment="kpoint 52">
       <r>  -10.0733    1.0000 </r>
       <r>   -9.3835    1.0000 </r>
       <r>   -4.2935    1.0000 </r>
       <r>   -4.2115    1.0000 </r>
       <r>   -4.1924    1.0000 </r>
       <r>   -4.0915    1.0000 </r>
       <r>   -4.0564    1.0000 </r>
       <r>   -3.9623    1.0000 </r>
       <r>   -3.9050    1.0000 </r>
       <r>   -3.8655    1.0000 </r>
       <r>   -3.7956    1.0000 </r>
       <r>   -3.5034    1.0000 </r>
       <r>   -2.4823    1.0000 </r>
       <r>   -1.2159    1.0000 </r>
       <r>   -0.5595    1.0000 </r>
       <r>    0.5319    1.0000 </r>
       <r>    1.4580    1.0000 </r>
       <r>    1.8518    1.0000 </r>
       <r>    5.9280    0.0000 </r>
       <r>    6.2689    0.0000 </r>
       <r>    7.7333    0.0000 </r>
       <r>    8.7732    0.0000 </r>
      </set>
      <set comment="kpoint 53">
       <r>  -10.1694    1.0000 </r>
       <r>   -9.4170    1.0000 </r>
       <r>   -4.2977    1.0000 </r>
       <r>   -4.2236    1.0000 </r>
       <r>   -4.2003    1.0000 </r>
       <r>   -4.1199    1.0000 </r>
       <r>   -4.0761    1.0000 </r>
       <r>   -3.9518    1.0000 </r>
       <r>   -3.9083    1.0000 </r>
       <r>   -3.8742    1.0000 </r>
       <r>   -3.7987    1.0000 </r>
       <r>   -3.5253    1.0000 </r>
       <r>   -2.5227    1.0000 </r>
       <r>   -1.0007    1.0000 </r>
       <r>   -0.2557    1.0000 </r>
       <r>    0.6530    1.0000 </r>
       <r>    1.6306    1.0000 </r>
       <r>    1.9402    1.0000 </r>
       <r>    6.0191    0.0000 </r>
       <r>    6.1813    0.0000 </r>
       <r>    7.8794    0.0000 </r>
       <r>    8.6630    0.0000 </r>
      </set>
      <set comment="kpoint 54">
       <r>  -10.2631    1.0000 </r>
       <r>   -9.4547    1.0000 </r>
       <r>   -4.3006    1.0000 </r>
       <r>   -4.2343    1.0000 </r>
       <r>   -4.2093    1.0000 </r>
       <r>   -4.1442    1.0000 </r>
       <r>   -4.0966    1.0000 </r>
       <r>   -3.9427    1.0000 </r>
       <r>   -3.9076    1.0000 </r>
       <r>   -3.8814    1.0000 </r>
       <r>   -3.8016    1.0000 </r>
       <r>   -3.5448    1.0000 </r>
       <r>   -2.5987    1.0000 </r>
       <r>   -0.7223    1.0000 </r>
       <r>    0.0723    1.0000 </r>
       <r>    0.7834    1.0000 </r>
       <r>    1.7906    1.0000 </r>
       <r>    2.0329    1.0000 </r>
       <r>    6.0358    0.0000 </r>
       <r>    6.1206    0.0000 </r>
       <r>    7.9557    0.0000 </r>
       <r>    8.6194    0.0000 </r>
      </set>
      <set comment="kpoint 55">
       <r>  -10.3516    1.0000 </r>
       <r>   -9.4942    1.0000 </r>
       <r>   -4.3018    1.0000 </r>
       <r>   -4.2444    1.0000 </r>
       <r>   -4.2190    1.0000 </r>
       <r>   -4.1642    1.0000 </r>
       <r>   -4.1168    1.0000 </r>
       <r>   -3.9347    1.0000 </r>
       <r>   -3.9031    1.0000 </r>
       <r>   -3.8867    1.0000 </r>
       <r>   -3.8044    1.0000 </r>
       <r>   -3.5613    1.0000 </r>
       <r>   -2.6908    1.0000 </r>
       <r>   -0.4009    1.0000 </r>
       <r>    0.4163    1.0000 </r>
       <r>    0.9201    1.0000 </r>
       <r>    1.9344    1.0000 </r>
       <r>    2.1271    1.0000 </r>
       <r>    5.8654    0.0000 </r>
       <r>    6.1738    0.0000 </r>
       <r>    7.9191    0.0000 </r>
       <r>    8.6803    0.0000 </r>
      </set>
      <set comment="kpoint 56">
       <r>  -10.4325    1.0000 </r>
       <r>   -9.5332    1.0000 </r>
       <r>   -4.3016    1.0000 </r>
       <r>   -4.2546    1.0000 </r>
       <r>   -4.2292    1.0000 </r>
       <r>   -4.1798    1.0000 </r>
       <r>   -4.1359    1.0000 </r>
       <r>   -3.9270    1.0000 </r>
       <r>   -3.8966    1.0000 </r>
       <r>   -3.8889    1.0000 </r>
       <r>   -3.8069    1.0000 </r>
       <r>   -3.5756    1.0000 </r>
       <r>   -2.7858    1.0000 </r>
       <r>   -0.0533    1.0000 </r>
       <r>    0.7692    1.0000 </r>
       <r>    1.0587    1.0000 </r>
       <r>    2.0594    1.0000 </r>
       <r>    2.2190    1.0000 </r>
       <r>    5.6481    0.0000 </r>
       <r>    6.1627    0.0000 </r>
       <r>    7.8419    0.0000 </r>
       <r>    8.8228    0.0000 </r>
      </set>
      <set comment="kpoint 57">
       <r>  -10.5040    1.0000 </r>
       <r>   -9.5699    1.0000 </r>
       <r>   -4.3005    1.0000 </r>
       <r>   -4.2648    1.0000 </r>
       <r>   -4.2392    1.0000 </r>
       <r>   -4.1912    1.0000 </r>
       <r>   -4.1532    1.0000 </r>
       <r>   -3.9196    1.0000 </r>
       <r>   -3.8948    1.0000 </r>
       <r>   -3.8819    1.0000 </r>
       <r>   -3.8092    1.0000 </r>
       <r>   -3.5889    1.0000 </r>
       <r>   -2.8754    1.0000 </r>
       <r>    0.3044    1.0000 </r>
       <r>    1.1160    1.0000 </r>
       <r>    1.2035    1.0000 </r>
       <r>    2.1645    1.0000 </r>
       <r>    2.3044    1.0000 </r>
       <r>    5.3954    0.0000 </r>
       <r>    6.0450    0.0000 </r>
       <r>    7.8259    0.0000 </r>
       <r>    8.7568    0.0000 </r>
      </set>
      <set comment="kpoint 58">
       <r>  -10.5645    1.0000 </r>
       <r>   -9.6023    1.0000 </r>
       <r>   -4.2991    1.0000 </r>
       <r>   -4.2741    1.0000 </r>
       <r>   -4.2483    1.0000 </r>
       <r>   -4.1993    1.0000 </r>
       <r>   -4.1680    1.0000 </r>
       <r>   -3.9128    1.0000 </r>
       <r>   -3.8951    1.0000 </r>
       <r>   -3.8691    1.0000 </r>
       <r>   -3.8111    1.0000 </r>
       <r>   -3.6020    1.0000 </r>
       <r>   -2.9543    1.0000 </r>
       <r>    0.6566    1.0000 </r>
       <r>    1.3045    1.0000 </r>
       <r>    1.4936    1.0000 </r>
       <r>    2.2494    1.0000 </r>
       <r>    2.3797    1.0000 </r>
       <r>    5.1181    0.0000 </r>
       <r>    5.8314    0.0000 </r>
       <r>    7.9003    0.0000 </r>
       <r>    8.6222    0.0000 </r>
      </set>
      <set comment="kpoint 59">
       <r>  -10.6127    1.0000 </r>
       <r>   -9.6291    1.0000 </r>
       <r>   -4.2983    1.0000 </r>
       <r>   -4.2816    1.0000 </r>
       <r>   -4.2557    1.0000 </r>
       <r>   -4.2050    1.0000 </r>
       <r>   -4.1797    1.0000 </r>
       <r>   -3.9074    1.0000 </r>
       <r>   -3.8948    1.0000 </r>
       <r>   -3.8544    1.0000 </r>
       <r>   -3.8126    1.0000 </r>
       <r>   -3.6154    1.0000 </r>
       <r>   -3.0187    1.0000 </r>
       <r>    0.9829    1.0000 </r>
       <r>    1.4151    1.0000 </r>
       <r>    1.8306    1.0000 </r>
       <r>    2.3145    1.0000 </r>
       <r>    2.4419    1.0000 </r>
       <r>    4.8311    0.0000 </r>
       <r>    5.5723    0.0000 </r>
       <r>    8.0326    0.0000 </r>
       <r>    8.4976    0.0000 </r>
      </set>
      <set comment="kpoint 60">
       <r>  -10.6478    1.0000 </r>
       <r>   -9.6491    1.0000 </r>
       <r>   -4.2986    1.0000 </r>
       <r>   -4.2865    1.0000 </r>
       <r>   -4.2611    1.0000 </r>
       <r>   -4.2089    1.0000 </r>
       <r>   -4.1879    1.0000 </r>
       <r>   -3.9036    1.0000 </r>
       <r>   -3.8940    1.0000 </r>
       <r>   -3.8401    1.0000 </r>
       <r>   -3.8134    1.0000 </r>
       <r>   -3.6282    1.0000 </r>
       <r>   -3.0663    1.0000 </r>
       <r>    1.2552    1.0000 </r>
       <r>    1.5017    1.0000 </r>
       <r>    2.1330    1.0000 </r>
       <r>    2.3605    1.0000 </r>
       <r>    2.4903    1.0000 </r>
       <r>    4.5592    0.0000 </r>
       <r>    5.3278    0.0000 </r>
       <r>    8.1742    0.0000 </r>
       <r>    8.3994    0.0000 </r>
      </set>
      <set comment="kpoint 61">
       <r>  -10.6691    1.0000 </r>
       <r>   -9.6614    1.0000 </r>
       <r>   -4.2998    1.0000 </r>
       <r>   -4.2888    1.0000 </r>
       <r>   -4.2641    1.0000 </r>
       <r>   -4.2113    1.0000 </r>
       <r>   -4.1927    1.0000 </r>
       <r>   -3.9016    1.0000 </r>
       <r>   -3.8932    1.0000 </r>
       <r>   -3.8298    1.0000 </r>
       <r>   -3.8130    1.0000 </r>
       <r>   -3.6381    1.0000 </r>
       <r>   -3.0953    1.0000 </r>
       <r>    1.4355    1.0000 </r>
       <r>    1.5634    1.0000 </r>
       <r>    2.3533    1.0000 </r>
       <r>    2.3884    1.0000 </r>
       <r>    2.5277    1.0000 </r>
       <r>    4.3468    0.0000 </r>
       <r>    5.1520    0.0000 </r>
       <r>    8.2824    0.0000 </r>
       <r>    8.3379    0.0000 </r>
      </set>
      <set comment="kpoint 62">
       <r>  -10.6762    1.0000 </r>
       <r>   -9.6655    1.0000 </r>
       <r>   -4.3004    1.0000 </r>
       <r>   -4.2894    1.0000 </r>
       <r>   -4.2651    1.0000 </r>
       <r>   -4.2122    1.0000 </r>
       <r>   -4.1942    1.0000 </r>
       <r>   -3.9010    1.0000 </r>
       <r>   -3.8928    1.0000 </r>
       <r>   -3.8264    1.0000 </r>
       <r>   -3.8123    1.0000 </r>
       <r>   -3.6419    1.0000 </r>
       <r>   -3.1049    1.0000 </r>
       <r>    1.4942    1.0000 </r>
       <r>    1.5910    1.0000 </r>
       <r>    2.3970    1.0000 </r>
       <r>    2.4305    1.0000 </r>
       <r>    2.5512    1.0000 </r>
       <r>    4.2621    0.0000 </r>
       <r>    5.0876    0.0000 </r>
       <r>    8.3079    0.0000 </r>
       <r>    8.3323    0.0000 </r>
      </set>
      <set comment="kpoint 63">
       <r>  -10.6681    1.0000 </r>
       <r>   -9.6774    1.0000 </r>
       <r>   -4.3009    1.0000 </r>
       <r>   -4.2890    1.0000 </r>
       <r>   -4.2648    1.0000 </r>
       <r>   -4.2133    1.0000 </r>
       <r>   -4.1952    1.0000 </r>
       <r>   -3.9000    1.0000 </r>
       <r>   -3.8919    1.0000 </r>
       <r>   -3.8269    1.0000 </r>
       <r>   -3.8128    1.0000 </r>
       <r>   -3.7064    1.0000 </r>
       <r>   -3.0065    1.0000 </r>
       <r>    1.5023    1.0000 </r>
       <r>    1.5993    1.0000 </r>
       <r>    2.2788    1.0000 </r>
       <r>    2.4204    1.0000 </r>
       <r>    2.5408    1.0000 </r>
       <r>    4.3683    0.0000 </r>
       <r>    5.0978    0.0000 </r>
       <r>    8.3138    0.0000 </r>
       <r>    8.3378    0.0000 </r>
      </set>
      <set comment="kpoint 64">
       <r>  -10.6440    1.0000 </r>
       <r>   -9.7121    1.0000 </r>
       <r>   -4.3024    1.0000 </r>
[...]
       <r>   -3.8346    1.0000 </r>
       <r>   -3.8346    1.0000 </r>
       <r>   -0.9056    1.0000 </r>
       <r>   -0.9056    1.0000 </r>
       <r>    0.8027    1.0000 </r>
       <r>    0.8027    1.0000 </r>
       <r>    1.4237    1.0000 </r>
       <r>    1.4237    1.0000 </r>
       <r>    6.4523    0.0000 </r>
       <r>    6.4523    0.0000 </r>
       <r>    7.8588    0.0000 </r>
       <r>    7.8588    0.0000 </r>
      </set>
      <set comment="kpoint 78">
       <r>   -9.9012    1.0000 </r>
       <r>   -9.9012    1.0000 </r>
       <r>   -4.2859    1.0000 </r>
       <r>   -4.2859    1.0000 </r>
       <r>   -4.1788    1.0000 </r>
       <r>   -4.1788    1.0000 </r>
       <r>   -4.1555    1.0000 </r>
       <r>   -4.1555    1.0000 </r>
       <r>   -3.8494    1.0000 </r>
       <r>   -3.8494    1.0000 </r>
       <r>   -3.8285    1.0000 </r>
       <r>   -3.8285    1.0000 </r>
       <r>   -1.0873    1.0000 </r>
       <r>   -1.0873    1.0000 </r>
       <r>    0.7034    1.0000 </r>
       <r>    0.7034    1.0000 </r>
       <r>    1.3099    1.0000 </r>
       <r>    1.3099    1.0000 </r>
       <r>    6.3347    0.0000 </r>
       <r>    6.3347    0.0000 </r>
       <r>    7.8849    0.0000 </r>
       <r>    7.8849    0.0000 </r>
      </set>
      <set comment="kpoint 79">
       <r>   -9.8326    1.0000 </r>
       <r>   -9.8326    1.0000 </r>
       <r>   -4.2857    1.0000 </r>
       <r>   -4.2857    1.0000 </r>
       <r>   -4.1637    1.0000 </r>
       <r>   -4.1637    1.0000 </r>
       <r>   -4.1331    1.0000 </r>
       <r>   -4.1331    1.0000 </r>
       <r>   -3.8458    1.0000 </r>
       <r>   -3.8458    1.0000 </r>
       <r>   -3.8199    1.0000 </r>
       <r>   -3.8199    1.0000 </r>
       <r>   -1.3072    1.0000 </r>
       <r>   -1.3072    1.0000 </r>
       <r>    0.6554    1.0000 </r>
       <r>    0.6554    1.0000 </r>
       <r>    1.1990    1.0000 </r>
       <r>    1.1990    1.0000 </r>
       <r>    6.1921    0.0000 </r>
       <r>    6.1921    0.0000 </r>
       <r>    7.8545    0.0000 </r>
       <r>    7.8545    0.0000 </r>
      </set>
      <set comment="kpoint 80">
       <r>   -9.7638    1.0000 </r>
       <r>   -9.7638    1.0000 </r>
       <r>   -4.2850    1.0000 </r>
       <r>   -4.2850    1.0000 </r>
       <r>   -4.1495    1.0000 </r>
       <r>   -4.1495    1.0000 </r>
       <r>   -4.1073    1.0000 </r>
       <r>   -4.1073    1.0000 </r>
       <r>   -3.8413    1.0000 </r>
       <r>   -3.8413    1.0000 </r>
       <r>   -3.8077    1.0000 </r>
       <r>   -3.8077    1.0000 </r>
       <r>   -1.5488    1.0000 </r>
       <r>   -1.5488    1.0000 </r>
       <r>    0.6455    1.0000 </r>
       <r>    0.6455    1.0000 </r>
       <r>    1.0942    1.0000 </r>
       <r>    1.0942    1.0000 </r>
       <r>    6.0477    0.0000 </r>
       <r>    6.0477    0.0000 </r>
       <r>    7.7725    0.0000 </r>
       <r>    7.7725    0.0000 </r>
      </set>
      <set comment="kpoint 81">
       <r>   -9.6976    1.0000 </r>
       <r>   -9.6976    1.0000 </r>
       <r>   -4.2838    1.0000 </r>
       <r>   -4.2838    1.0000 </r>
       <r>   -4.1367    1.0000 </r>
       <r>   -4.1367    1.0000 </r>
       <r>   -4.0790    1.0000 </r>
       <r>   -4.0790    1.0000 </r>
       <r>   -3.8363    1.0000 </r>
       <r>   -3.8363    1.0000 </r>
       <r>   -3.7902    1.0000 </r>
       <r>   -3.7902    1.0000 </r>
       <r>   -1.7959    1.0000 </r>
       <r>   -1.7959    1.0000 </r>
       <r>    0.6595    1.0000 </r>
       <r>    0.6595    1.0000 </r>
       <r>    0.9986    1.0000 </r>
       <r>    0.9986    1.0000 </r>
       <r>    5.9139    0.0000 </r>
       <r>    5.9139    0.0000 </r>
       <r>    7.6618    0.0000 </r>
       <r>    7.6618    0.0000 </r>
      </set>
     </set>
    </set>
   </array>
  </eigenvalues>
  <separator name="orbital magnetization" >
   <v name="MAGDIPOLOUT">      0.00000000      0.00000000      0.00000000</v>
  </separator>
  <dos>
   <i name="efermi">      2.60174541 </i>
   <total>
    <array>
     <dimension dim="1">gridpoints</dimension>
     <dimension dim="2">spin</dimension>
     <field>energy</field>
     <field>total</field>
     <field>integrated</field>
     <set>
      <set comment="spin 1">
       <r>   -11.6623     0.0000     0.0000 </r>
       <r>   -11.5900     0.0000     0.0000 </r>
       <r>   -11.5177     0.0000     0.0000 </r>
       <r>   -11.4454     0.0000     0.0000 </r>
       <r>   -11.3731     0.0000     0.0000 </r>
       <r>   -11.3008     0.0000     0.0000 </r>
       <r>   -11.2285     0.0000     0.0000 </r>
       <r>   -11.1561     0.0000     0.0000 </r>
       <r>   -11.0838     0.0000     0.0000 </r>
       <r>   -11.0115     0.0000     0.0000 </r>
       <r>   -10.9392     0.0000     0.0000 </r>
       <r>   -10.8669     0.0000     0.0000 </r>
       <r>   -10.7946     0.0000     0.0000 </r>
       <r>   -10.7223     0.0000     0.0000 </r>
       <r>   -10.6499     3.1538     0.2281 </r>
       <r>   -10.5776     8.9314     0.8750 </r>
       <r>   -10.5053     0.7392     0.9285 </r>
       <r>   -10.4330     5.8132     1.3488 </r>
       <r>   -10.3607     0.2808     1.3750 </r>
       <r>   -10.2884     0.2773     1.3951 </r>
       <r>   -10.2161     6.6369     1.8750 </r>
       <r>   -10.1437     0.0000     1.8750 </r>
       <r>   -10.0714     0.2719     1.8947 </r>
       <r>    -9.9991     1.4566     2.0000 </r>
       <r>    -9.9268     0.0000     2.0000 </r>
       <r>    -9.8545     0.0000     2.0000 </r>
       <r>    -9.7822     0.0000     2.0000 </r>
       <r>    -9.7098     0.0001     2.0000 </r>
       <r>    -9.6375     8.6311     2.6242 </r>
       <r>    -9.5652     6.5074     3.1012 </r>
       <r>    -9.4929     3.5900     3.3757 </r>
       <r>    -9.4206     6.9043     3.8750 </r>
       <r>    -9.3483     1.7285     4.0000 </r>
       <r>    -9.2760     0.0000     4.0000 </r>
       <r>    -9.2036     0.0000     4.0000 </r>
       <r>    -9.1313     0.0000     4.0000 </r>
       <r>    -9.0590     0.0000     4.0000 </r>
       <r>    -8.9867     0.0000     4.0000 </r>
       <r>    -8.9144     0.0000     4.0000 </r>
       <r>    -8.8421     0.0000     4.0000 </r>
       <r>    -8.7698     0.0000     4.0000 </r>
       <r>    -8.6974     0.0000     4.0000 </r>
       <r>    -8.6251     0.0000     4.0000 </r>
       <r>    -8.5528     0.0000     4.0000 </r>
       <r>    -8.4805     0.0000     4.0000 </r>
       <r>    -8.4082     0.0000     4.0000 </r>
       <r>    -8.3359     0.0000     4.0000 </r>
       <r>    -8.2636     0.0000     4.0000 </r>
       <r>    -8.1912     0.0000     4.0000 </r>
       <r>    -8.1189     0.0000     4.0000 </r>
       <r>    -8.0466     0.0000     4.0000 </r>
       <r>    -7.9743     0.0000     4.0000 </r>
       <r>    -7.9020     0.0000     4.0000 </r>
       <r>    -7.8297     0.0000     4.0000 </r>
       <r>    -7.7573     0.0000     4.0000 </r>
       <r>    -7.6850     0.0000     4.0000 </r>
       <r>    -7.6127     0.0000     4.0000 </r>
       <r>    -7.5404     0.0000     4.0000 </r>
       <r>    -7.4681     0.0000     4.0000 </r>
       <r>    -7.3958     0.0000     4.0000 </r>
       <r>    -7.3235     0.0000     4.0000 </r>
       <r>    -7.2511     0.0000     4.0000 </r>
       <r>    -7.1788     0.0000     4.0000 </r>
       <r>    -7.1065     0.0000     4.0000 </r>
       <r>    -7.0342     0.0000     4.0000 </r>
       <r>    -6.9619     0.0000     4.0000 </r>
       <r>    -6.8896     0.0000     4.0000 </r>
       <r>    -6.8173     0.0000     4.0000 </r>
       <r>    -6.7449     0.0000     4.0000 </r>
       <r>    -6.6726     0.0000     4.0000 </r>
       <r>    -6.6003     0.0000     4.0000 </r>
       <r>    -6.5280     0.0000     4.0000 </r>
       <r>    -6.4557     0.0000     4.0000 </r>
       <r>    -6.3834     0.0000     4.0000 </r>
       <r>    -6.3111     0.0000     4.0000 </r>
       <r>    -6.2387     0.0000     4.0000 </r>
       <r>    -6.1664     0.0000     4.0000 </r>
       <r>    -6.0941     0.0000     4.0000 </r>
       <r>    -6.0218     0.0000     4.0000 </r>
       <r>    -5.9495     0.0000     4.0000 </r>
       <r>    -5.8772     0.0000     4.0000 </r>
       <r>    -5.8048     0.0000     4.0000 </r>
       <r>    -5.7325     0.0000     4.0000 </r>
       <r>    -5.6602     0.0000     4.0000 </r>
       <r>    -5.5879     0.0000     4.0000 </r>
       <r>    -5.5156     0.0000     4.0000 </r>
       <r>    -5.4433     0.0000     4.0000 </r>
       <r>    -5.3710     0.0000     4.0000 </r>
       <r>    -5.2986     0.0000     4.0000 </r>
       <r>    -5.2263     0.0000     4.0000 </r>
       <r>    -5.1540     0.0000     4.0000 </r>
       <r>    -5.0817     0.0000     4.0000 </r>
       <r>    -5.0094     0.0000     4.0000 </r>
       <r>    -4.9371     0.0000     4.0000 </r>
       <r>    -4.8648     0.0000     4.0000 </r>
       <r>    -4.7924     0.0000     4.0000 </r>
       <r>    -4.7201     0.0000     4.0000 </r>
       <r>    -4.6478     0.0000     4.0000 </r>
       <r>    -4.5755     0.0000     4.0000 </r>
       <r>    -4.5032     0.0000     4.0000 </r>
       <r>    -4.4309     0.0000     4.0000 </r>
       <r>    -4.3586     0.0000     4.0000 </r>
       <r>    -4.2862    27.3265     5.9761 </r>
       <r>    -4.2139    54.8582     9.9776 </r>
       <r>    -4.1416    41.5525    13.0373 </r>
       <r>    -4.0693    11.2339    13.8749 </r>
       <r>    -3.9970     1.7281    14.0000 </r>
       <r>    -3.9247    11.7256    14.8479 </r>
       <r>    -3.8523    63.7481    19.5052 </r>
       <r>    -3.7800    34.3794    21.9959 </r>
       <r>    -3.7077     1.1863    22.0858 </r>
       <r>    -3.6354     8.6941    22.7145 </r>
       <r>    -3.5631    11.6902    23.5623 </r>
       <r>    -3.4908     5.9510    23.9936 </r>
       <r>    -3.4185     0.0736    24.0000 </r>
       <r>    -3.3461     0.0000    24.0000 </r>
       <r>    -3.2738     0.0000    24.0000 </r>
       <r>    -3.2015     0.0000    24.0000 </r>
       <r>    -3.1292     0.0001    24.0000 </r>
       <r>    -3.0569     1.9526    24.1412 </r>
       <r>    -2.9846     5.6090    24.5476 </r>
       <r>    -2.9123     2.7704    24.7479 </r>
       <r>    -2.8399     3.6263    25.0122 </r>
       <r>    -2.7676     3.0577    25.2334 </r>
       <r>    -2.6953     1.3613    25.3318 </r>
       <r>    -2.6230     0.7264    25.3843 </r>
       <r>    -2.5507     5.0567    25.7500 </r>
       <r>    -2.4784     1.7337    25.8754 </r>
       <r>    -2.4061     1.6460    25.9944 </r>
       <r>    -2.3337     0.0773    26.0000 </r>
       <r>    -2.2614     0.0000    26.0000 </r>
       <r>    -2.1891     0.0000    26.0000 </r>
       <r>    -2.1168     0.0000    26.0000 </r>
       <r>    -2.0445     0.0000    26.0000 </r>
       <r>    -1.9722     0.0000    26.0000 </r>
       <r>    -1.8999     0.0000    26.0000 </r>
       <r>    -1.8275     0.0000    26.0000 </r>
       <r>    -1.7552     0.0000    26.0000 </r>
       <r>    -1.6829     0.0000    26.0000 </r>
       <r>    -1.6106     0.0000    26.0000 </r>
       <r>    -1.5383     0.0000    26.0000 </r>
       <r>    -1.4660     0.0000    26.0000 </r>
       <r>    -1.3936     0.0000    26.0000 </r>
       <r>    -1.3213     0.0000    26.0000 </r>
       <r>    -1.2490     0.0000    26.0000 </r>
       <r>    -1.1767     0.0000    26.0000 </r>
       <r>    -1.1044     0.0000    26.0000 </r>
       <r>    -1.0321     0.0001    26.0000 </r>
       <r>    -0.9598     1.6720    26.1209 </r>
       <r>    -0.8874     0.0000    26.1250 </r>
       <r>    -0.8151     0.0000    26.1250 </r>
       <r>    -0.7428     0.0000    26.1250 </r>
       <r>    -0.6705     0.0000    26.1250 </r>
       <r>    -0.5982     1.7184    26.2493 </r>
       <r>    -0.5259     0.0000    26.2500 </r>
       <r>    -0.4536     6.6803    26.7331 </r>
       <r>    -0.3812     0.0000    26.7500 </r>
       <r>    -0.3089     0.0000    26.7500 </r>
       <r>    -0.2366     0.0000    26.7500 </r>
       <r>    -0.1643     0.0000    26.7500 </r>
       <r>    -0.0920     0.0000    26.7500 </r>
       <r>    -0.0197     4.0241    27.0410 </r>
       <r>     0.0526     2.8895    27.2500 </r>
       <r>     0.1250     3.4566    27.5000 </r>
       <r>     0.1973     0.0000    27.5000 </r>
       <r>     0.2696     1.7285    27.6250 </r>
       <r>     0.3419     1.6320    27.7430 </r>
       <r>     0.4142     1.8251    27.8750 </r>
       <r>     0.4865     0.0000    27.8750 </r>
       <r>     0.5589     0.0000    27.8750 </r>
       <r>     0.6312     0.0001    27.8750 </r>
       <r>     0.7035     3.4412    28.1239 </r>
       <r>     0.7758     6.9141    28.6250 </r>
       <r>     0.8481     0.0000    28.6250 </r>
       <r>     0.9204     1.0212    28.6989 </r>
       <r>     0.9927     2.3994    28.8758 </r>
       <r>     1.0651     6.9034    29.3750 </r>
       <r>     1.1374     0.0000    29.3750 </r>
       <r>     1.2097     3.4555    29.6249 </r>
       <r>     1.2820     0.0000    29.6250 </r>
       <r>     1.3543     5.5623    30.0272 </r>
       <r>     1.4266     7.5346    30.5810 </r>
       <r>     1.4989     5.0806    30.9632 </r>
       <r>     1.5713     3.9661    31.2501 </r>
       <r>     1.6436     1.7270    31.3750 </r>
       <r>     1.7159     0.0000    31.3750 </r>
       <r>     1.7882     1.5952    31.4904 </r>
       <r>     1.8605    14.1019    32.5198 </r>
       <r>     1.9328     4.0910    32.8750 </r>
       <r>     2.0051     0.0000    32.8750 </r>
       <r>     2.0775     1.8259    33.0070 </r>
       <r>     2.1498     3.3976    33.2569 </r>
       <r>     2.2221     8.0902    33.8430 </r>
       <r>     2.2944     6.0796    34.2842 </r>
       <r>     2.3667     8.1477    34.8750 </r>
       <r>     2.4390     6.8769    35.3777 </r>
       <r>     2.5114     6.6286    35.8750 </r>
       <r>     2.5837     1.7283    36.0000 </r>
       <r>     2.6560     0.0000    36.0000 </r>
       <r>     2.7283     0.0000    36.0000 </r>
       <r>     2.8006     0.0000    36.0000 </r>
       <r>     2.8729     0.0000    36.0000 </r>
       <r>     2.9452     0.0000    36.0000 </r>
       <r>     3.0176     0.0000    36.0000 </r>
       <r>     3.0899     0.0000    36.0000 </r>
       <r>     3.1622     0.0000    36.0000 </r>
       <r>     3.2345     0.0000    36.0000 </r>
       <r>     3.3068     0.0000    36.0000 </r>
       <r>     3.3791     0.0000    36.0000 </r>
       <r>     3.4514     0.0000    36.0000 </r>
       <r>     3.5238     0.0000    36.0000 </r>
       <r>     3.5961     0.0000    36.0000 </r>
       <r>     3.6684     0.0000    36.0000 </r>
       <r>     3.7407     0.0000    36.0000 </r>
       <r>     3.8130     0.0000    36.0000 </r>
       <r>     3.8853     0.0000    36.0000 </r>
       <r>     3.9576     0.0000    36.0000 </r>
       <r>     4.0300     0.0000    36.0000 </r>
       <r>     4.1023     0.0000    36.0000 </r>
       <r>     4.1746     0.0000    36.0000 </r>
       <r>     4.2469     0.0068    36.0005 </r>
       <r>     4.3192     1.2511    36.0910 </r>
       <r>     4.3915     0.0000    36.0938 </r>
       <r>     4.4639     0.4321    36.1250 </r>
       <r>     4.5362     0.8264    36.1848 </r>
       <r>     4.6085     1.7278    36.3125 </r>
       <r>     4.6808     0.8635    36.3749 </r>
       <r>     4.7531     0.0000    36.3750 </r>
       <r>     4.8254     3.6028    36.6355 </r>
       <r>     4.8977     1.7580    36.7627 </r>
       <r>     4.9701     1.5534    36.8750 </r>
       <r>     5.0424     0.0000    36.8750 </r>
       <r>     5.1147     1.6970    36.9977 </r>
       <r>     5.1870     0.0000    37.0000 </r>
       <r>     5.2593     0.0000    37.0000 </r>
       <r>     5.3316     3.4567    37.2500 </r>
       <r>     5.4039     0.1550    37.2612 </r>
       <r>     5.4763     3.0473    37.4816 </r>
       <r>     5.5486     2.7554    37.6808 </r>
       <r>     5.6209     4.5533    38.0101 </r>
       <r>     5.6932     3.3169    38.2500 </r>
       <r>     5.7655     0.0000    38.2500 </r>
       <r>     5.8378     0.0000    38.2500 </r>
       <r>     5.9101     0.0000    38.2500 </r>
       <r>     5.9825     0.0000    38.2500 </r>
       <r>     6.0548     0.0000    38.2500 </r>
       <r>     6.1271     1.8892    38.3866 </r>
       <r>     6.1994     8.4029    38.9943 </r>
       <r>     6.2717     0.0000    39.0000 </r>
       <r>     6.3440     3.4569    39.2500 </r>
       <r>     6.4164     0.0000    39.2500 </r>
       <r>     6.4887     0.0013    39.2501 </r>
       <r>     6.5610     0.4309    39.2813 </r>
       <r>     6.6333     1.1882    39.3672 </r>
       <r>     6.7056     0.1082    39.3750 </r>
       <r>     6.7779     0.0121    39.3759 </r>
       <r>     6.8502     8.2548    39.9728 </r>
       <r>     6.9226     0.3759    40.0000 </r>
       <r>     6.9949     0.0000    40.0000 </r>
       <r>     7.0672     0.0000    40.0000 </r>
       <r>     7.1395     0.0000    40.0000 </r>
       <r>     7.2118     0.0000    40.0000 </r>
       <r>     7.2841     0.0000    40.0000 </r>
       <r>     7.3564     0.0000    40.0000 </r>
       <r>     7.4288     0.0000    40.0000 </r>
       <r>     7.5011     0.0000    40.0000 </r>
       <r>     7.5734     0.0000    40.0000 </r>
       <r>     7.6457     6.1010    40.4412 </r>
       <r>     7.7180     4.3302    40.7543 </r>
       <r>     7.7903     5.0149    41.1223 </r>
       <r>     7.8626     0.0000    41.1250 </r>
       <r>     7.9350     0.0000    41.1250 </r>
       <r>     8.0073     0.0000    41.1250 </r>
       <r>     8.0796     6.9134    41.6249 </r>
       <r>     8.1519     0.0000    41.6250 </r>
       <r>     8.2242     5.3031    42.0085 </r>
       <r>     8.2965     6.8422    42.5033 </r>
       <r>     8.3689     2.1152    42.6563 </r>
       <r>     8.4412     3.4566    42.9062 </r>
       <r>     8.5135     6.9133    43.4062 </r>
       <r>     8.5858     0.2078    43.4213 </r>
       <r>     8.6581     7.9345    43.9951 </r>
       <r>     8.7304     0.0000    44.0000 </r>
       <r>     8.8027     0.0000    44.0000 </r>
       <r>     8.8751     0.0000    44.0000 </r>
       <r>     8.9474     0.0000    44.0000 </r>
       <r>     9.0197     0.0000    44.0000 </r>
       <r>     9.0920     0.0000    44.0000 </r>
       <r>     9.1643     0.0000    44.0000 </r>
       <r>     9.2366     0.0000    44.0000 </r>
       <r>     9.3089     0.0000    44.0000 </r>
       <r>     9.3813     0.0000    44.0000 </r>
       <r>     9.4536     0.0000    44.0000 </r>
       <r>     9.5259     0.0000    44.0000 </r>
       <r>     9.5982     0.0000    44.0000 </r>
       <r>     9.6705     0.0000    44.0000 </r>
       <r>     9.7428     0.0000    44.0000 </r>
       <r>     9.8151     0.0000    44.0000 </r>
       <r>     9.8875     0.0000    44.0000 </r>
       <r>     9.9598     0.0000    44.0000 </r>
       <r>    10.0321     0.0000    44.0000 </r>
      </set>
     </set>
    </array>
   </total>
  </dos>
 </calculation>
 <structure name="finalpos" >
  <crystal>
   <varray name="basis" >
    <v>       3.82270000       0.00000000       0.00000000 </v>
    <v>      -1.91135000       3.31055531       0.00000000 </v>
    <v>       0.00000000       0.00000000       6.26070000 </v>
   </varray>
   <i name="volume">     79.23078495 </i>
   <varray name="rec_basis" >
    <v>       0.26159521       0.15103206      -0.00000000 </v>
    <v>       0.00000000       0.30206413      -0.00000000 </v>
    <v>       0.00000000       0.00000000       0.15972655 </v>
   </varray>
  </crystal>
  <varray name="positions" >
   <v>       0.33330000       0.66670000       0.00000000 </v>
   <v>       0.66670000       0.33330000       0.50000000 </v>
   <v>       0.33330000       0.66670000       0.37480000 </v>
   <v>       0.66670000       0.33330000       0.87480000 </v>
  </varray>
 </structure>
</modeling>
