Band structure                          
           1
     3.822700    0.000000    0.000000
    -1.911350    3.310555    0.000000
     0.000000    0.000000    6.260700
   Zn   S 
   2   2
Direct configuration=     1
   0.33330000  0.66670000  0.00000000
   0.66670000  0.33330000  0.50000000
   0.33330000  0.66670000  0.37480000
   0.66670000  0.33330000  0.87480000
