Band structure                          
   1.00000000000000     
     3.216290    0.000000    0.000000
    -1.608145    2.785389    0.000000
     0.000000    0.000000    5.239962
   Ga   N 
     2     2
Direct
  0.333333  0.666667  0.500880
  0.666667  0.333333  0.000880
  0.333333  0.666667  0.124120
  0.666667  0.333333  0.624120
 
   36   36   60
  2.4407      2.4783      2.5948      2.8002      3.1097      3.5425      4.1215      4.8727      5.8238      6.9981    
  8.3935      9.9709      11.654      13.340      14.914      16.266      17.304      17.956      18.178      17.956    
  17.304      16.266      14.913      13.339      11.654      9.9721      8.3950      6.9989      5.8238      4.8724    
  4.1213      3.5424      3.1097      2.8002      2.5948      2.4783      2.4783      2.4784      2.5480      2.6938    
  2.9281      3.2676      3.7335      4.3505      5.1449      6.1365      7.3197      8.6560      10.074      11.479    
  12.773      13.875      14.728      15.304      15.593      15.593      15.303      14.727      13.874      12.774    
  11.481      10.076      8.6575      7.3196      6.1354      5.1440      4.3502      3.7336      3.2677      2.9281    
  2.6939      2.5480      2.5948      2.5628      2.5948      2.6938      2.8685      3.1332      3.5076      4.0165    
  4.6868      5.5378      6.5621      7.7168      8.9237      10.085      11.107      11.924      12.512      12.887    
  13.088      13.149      13.087      12.887      12.512      11.925      11.109      10.087      8.9242      7.7157    
  6.5605      5.5368      4.6868      4.0169      3.5079      3.1333      2.8685      2.6938      2.8002      2.7388    
  2.7388      2.8002      2.9281      3.1333      3.4336      3.8531      4.4204      5.1573      6.0601      7.0846    
  8.1435      9.1241      9.9211      10.469      10.762      10.853      10.834      10.796      10.796      10.834    
  10.854      10.763      10.470      9.9209      9.1226      8.1415      7.0834      6.0603      5.1583      4.4213    
  3.8535      3.4336      3.1333      2.9280      3.1097      3.0197      2.9903      3.0196      3.1097      3.2677    
  3.5081      3.8538      4.3339      4.9730      5.7738      6.6975      7.6539      8.5164      9.1580      9.4950    
  9.5188      9.3030      8.9825      8.7098      8.6040      8.7101      8.9831      9.3036      9.5188      9.4940    
  9.1561      8.5147      7.6538      6.6989      5.7756      4.9740      4.3340      3.8536      3.5079      3.2676    
  3.5425      3.4236      3.3661      3.3660      3.4235      3.5424      3.7335      4.0171      4.4222      4.9749    
  5.6830      6.5160      7.3894      8.1718      8.7176      8.9159      8.7354      8.2462      7.6067      7.0197    
  6.6710      6.6710      7.0199      7.6068      8.2459      8.7346      8.9149      8.7176      8.1733      7.3916    
  6.5174      5.6829      4.9740      4.4214      4.0169      3.7335      4.1212      3.9730      3.8889      3.8614    
  3.8888      3.9729      4.1210      4.3498      4.6868      5.1592      5.7772      6.5185      7.3090      8.0214    
  8.5017      8.6161      8.3031      7.6087      6.6884      5.7719      5.0999      4.8534      5.0997      5.7716    
  6.6880      7.6084      8.3034      8.6172      8.5034      8.0229      7.3092      6.5173      5.7755      5.1583    
  4.6868      4.3502      4.8723      4.6948      4.5871      4.5357      4.5356      4.5871      4.6949      4.8720    
  5.1431      5.5359      6.0601      6.7001      7.3935      8.0243      8.4406      8.4965      8.1036      7.2755    
  6.1437      4.9369      3.9262      3.3510      3.3509      3.9259      4.9364      6.1434      7.2761      8.1048    
  8.4975      8.4406      8.0229      7.3916      6.6988      6.0602      5.5369      5.1440      5.8238      5.6191    
  5.4933      5.4248      5.4028      5.4247      5.4935      5.6196      5.8238      6.1344      6.5588      7.0821    
  7.6539      8.1747      8.5051      8.4983      8.0493      7.1408      5.8703      4.4435      3.1332      2.2121    
  1.8808      2.2124      3.1331      4.4432      5.8704      7.1413      8.0494      8.4974      8.5035      8.1735    
  7.6538      7.0832      6.5605      6.1356      6.9992      6.7756      6.6412      6.5668      6.5334      6.5331    
  6.5665      6.6417      6.7766      6.9998      7.3196      7.7144      8.1396      8.5134      8.7175      8.6180    
  8.1057      7.1417      5.7893      4.2190      2.6813      1.4535     0.77203     0.77243      1.4541      2.6814    
  4.2189      5.7894      7.1414      8.1046      8.6170      8.7179      8.5150      8.1413      7.7155      7.3198    
  8.3955      8.1863      8.0590      7.9954      7.9672      7.9589      7.9665      7.9950      8.0594      8.1871    
  8.3966      8.6587      8.9240      9.1211      9.1543      8.9140      8.3034      7.2765      5.8707      4.2192    
  2.5356      1.0759     0.83496E-01 -.26783     0.84160E-01  1.0762      2.5353      4.2191      5.8708      7.2760    
  8.3029      8.9149      9.1565      9.1226      8.9237      8.6575      9.9725      9.8473      9.7597      9.7323    
  9.7340      9.7401      9.7397      9.7333      9.7319      9.7593      9.8468      9.9732      10.078      10.088    
  9.9209      9.4931      8.7336      7.6080      6.1434      4.4435      2.6817      1.0763     -.14948     -.81315    
 -.81287     -.14931      1.0758      2.6812      4.4438      6.1439      7.6080      8.7341      9.4943      9.9213    
  10.086      10.076      11.654      11.711      11.730      11.778      11.847      11.901      11.921      11.901    
  11.847      11.778      11.729      11.709      11.654      11.482      11.110      10.471      9.5188      8.2455    
  6.6877      4.9363      3.1332      1.4541     0.84194E-01 -.81285     -1.1248     -.81264     0.83711E-01  1.4532    
  3.1331      4.9371      6.6880      8.2454      9.5188      10.470      11.109      11.480      13.339      13.689    
  13.913      14.101      14.293      14.448      14.533      14.533      14.448      14.294      14.101      13.911    
  13.687      13.338      12.774      11.925      10.764      9.3041      7.6069      5.7715      3.9258      2.2122    
 0.77232     -.26763     -.81264     -.81233     -.26741     0.77180      2.2118      3.9263      5.7720      7.6065    
  9.3032      10.763      11.925      12.773      14.912      15.661      16.200      16.628      17.023      17.359    
  17.582      17.660      17.582      17.360      17.025      16.629      16.199      15.660      14.911      13.873    
  12.512      10.854      8.9834      7.0200      5.0997      3.3507      1.8805     0.77191     0.83716E-01 -.14907    
 0.84423E-01 0.77224      1.8803      3.3508      5.1001      7.0198      8.9826      10.854      12.512      13.874    
  16.265      17.486      18.443      19.230      19.937      20.566      21.038      21.289      21.288      21.037    
  20.566      19.939      19.231      18.444      17.487      16.265      14.726      12.886      10.834      8.7102    
  6.6712      4.8536      3.3510      2.2120      1.4532      1.0757      1.0761      1.4539      2.2121      3.3508    
  4.8537      6.6712      8.7098      10.834      12.887      14.727      17.304      19.020      20.467      21.722    
  22.869      23.927      24.795      25.363      25.559      25.361      24.793      23.926      22.869      21.723    
  20.469      19.021      17.304      15.303      13.087      10.796      8.6041      6.6711      5.1002      3.9265    
  3.1332      2.6810      2.5351      2.6814      3.1332      3.9260      5.1000      6.6713      8.6040      10.795    
  13.087      15.304      17.956      20.128      22.087      23.883      25.585      27.215      28.645      29.709    
  30.277      30.276      29.708      28.644      27.214      25.584      23.882      22.088      20.129      17.956    
  15.593      13.149      10.796      8.7097      7.0197      5.7721      4.9372      4.4436      4.2189      4.2190    
  4.4436      4.9366      5.7716      7.0200      8.7101      10.795      13.149      15.593      18.179      20.710    
  23.137      25.486      27.813      30.125      32.271      34.020      35.162      35.559      35.163      34.021    
  32.272      30.123      27.810      25.485      23.137      20.711      18.178      15.593      13.088      10.834    
  8.9823      7.6065      6.6884      6.1439      5.8705      5.7895      5.8710      6.1436      6.6876      7.6066    
  8.9832      10.834      13.087      15.593      17.956      20.711      23.501      26.342      29.282      32.319    
  35.280      37.866      39.780      40.796      40.796      39.782      37.869      35.282      32.318      29.280    
  26.342      23.501      20.710      17.956      15.304      12.887      10.854      9.3028      8.2458      7.6085    
  7.2756      7.1410      7.1418      7.2764      7.6078      8.2452      9.3038      10.854      12.886      15.303    
  17.304      20.129      23.137      26.342      29.796      33.503      37.281      40.778      43.606      45.437    
  46.068      45.435      43.606      40.781      37.283      33.502      29.796      26.343      23.137      20.127    
  17.304      14.728      12.512      10.762      9.5188      8.7352      8.3029      8.1036      8.0493      8.1056    
  8.3032      8.7335      9.5188      10.764      12.512      14.726      16.264      19.020      22.088      25.486    
  29.281      33.503      37.985      42.350      46.137      48.914      50.375      50.372      48.909      46.137    
  42.352      37.983      33.502      29.283      25.487      22.086      19.018      16.266      13.875      11.924    
  10.469      9.4954      8.9159      8.6159      8.4962      8.4983      8.6181      8.9140      9.4931      10.471    
  11.926      13.873      14.911      17.486      20.469      23.883      27.811      32.318      37.283      42.350    
  47.021      50.774      53.198      54.033      53.193      50.771      47.023      42.350      37.279      32.319    
  27.814      23.883      20.466      17.486      14.914      12.773      11.107      9.9213      9.1582      8.7177    
  8.5016      8.4406      8.5051      8.7176      9.1546      9.9211      11.110      12.773      13.338      15.660    
  18.445      21.723      25.584      30.123      35.282      40.780      46.135      50.771      54.179      55.983    
  55.980      54.177      50.774      46.138      40.776      35.279      30.126      25.587      21.720      18.442    
  15.662      13.340      11.479      10.085      9.1239      8.5163      8.1721      8.0216      8.0241      8.1746    
  8.5135      9.1213      10.088      11.482      11.654      13.687      16.200      19.231      22.869      27.214    
  32.272      37.869      43.606      48.909      53.193      55.980      56.945      55.979      53.196      48.915    
  43.606      37.864      32.271      27.217      22.869      19.227      16.200      13.691      11.654      10.074    
  8.9235      8.1434      7.6539      7.3895      7.3090      7.3935      7.6539      8.1394      8.9237      10.078    
  9.9737      11.709      13.911      16.629      19.939      23.926      28.644      34.022      39.783      45.437    
  50.373      54.031      55.979      55.977      54.030      50.377      45.439      39.780      34.019      28.646    
  23.929      19.936      16.627      13.914      11.712      9.9709      8.6560      7.7169      7.0847      6.6973    
  6.5158      6.5187      6.7003      7.0819      7.7141      8.6587      8.3969      9.8470      11.729      14.101    
  17.025      20.566      24.792      29.708      35.164      40.798      46.070      50.375      53.196      54.176    
  53.191      50.373      46.071      40.797      35.161      29.709      24.796      20.566      17.021      14.101    
  11.732      9.8472      8.3938      7.3198      6.5621      6.0601      5.7738      5.6829      5.7771      6.0601    
  6.5588      7.3197      6.9999      8.1870      9.7590      11.777      14.294      17.360      21.037      25.361    
  30.276      35.559      40.796      45.438      48.915      50.775      50.772      48.910      45.437      40.797    
  35.558      30.275      25.363      21.039      17.358      14.291      11.779      9.7607      8.1853      6.9982    
  6.1364      5.5378      5.1574      4.9730      4.9747      5.1591      5.5359      6.1346      5.8238      6.7765    
  8.0592      9.7317      11.846      14.448      17.583      21.289      25.559      30.276      35.160      39.779    
  43.606      46.140      47.025      46.137      43.606      39.781      35.162      30.275      25.559      21.290    
  17.583      14.447      11.847      9.7332      8.0589      6.7746      5.8238      5.1449      4.6868      4.4204    
  4.3339      4.4222      4.6868      5.1431      4.8720      5.6195      6.6417      7.9950      9.7334      11.901    
  14.533      17.660      21.290      25.363      29.709      34.018      37.865      40.778      42.351      42.351    
  40.779      37.868      34.021      29.708      25.361      21.290      17.661      14.533      11.900      9.7344    
  7.9957      6.6408      5.6187      4.8727      4.3505      4.0164      3.8531      3.8539      4.0172      4.3498    
  4.1210      4.6949      5.4935      6.5666      7.9667      9.7398      11.921      14.532      17.582      21.038    
  24.796      28.646      32.272      35.279      37.280      37.983      37.281      35.281      32.273      28.645    
  24.794      21.037      17.582      14.533      11.920      9.7401      7.9674      6.5667      5.4930      4.6948    
  4.1214      3.7335      3.5076      3.4336      3.5081      3.7335      3.5423      3.9729      4.5871      5.4247    
  6.5331      7.9590      9.7399      11.900      14.447      17.358      20.566      23.929      27.218      30.126    
  32.318      33.501      33.501      32.318      30.125      27.216      23.928      20.566      17.359      14.447    
  11.900      9.7396      7.9590      6.5334      5.4247      4.5870      3.9730      3.5424      3.2675      3.1332    
  3.1333      3.2676      3.1097      3.4235      3.8889      4.5357      5.4028      6.5333      7.9672      9.7342    
  11.846      14.292      17.022      19.936      22.869      25.587      27.814      29.283      29.796      29.281    
  27.812      25.585      22.869      19.937      17.024      14.293      11.847      9.7337      7.9668      6.5331    
  5.4028      4.5357      3.8889      3.4235      3.1097      2.9281      2.8685      2.9281      2.8002      3.0196    
  3.3661      3.8615      4.5357      5.4247      6.5666      7.9957      9.7334      11.779      14.101      16.627    
  19.227      21.720      23.883      25.487      26.344      26.343      25.486      23.882      21.721      19.230    
  16.628      14.102      11.779      9.7327      7.9954      6.5665      5.4246      4.5357      3.8615      3.3661    
  3.0196      2.8003      2.6939      2.6938      2.5948      2.7388      2.9903      3.3660      3.8889      4.5870    
  5.4930      6.6409      8.0592      9.7608      11.732      13.914      16.200      18.442      20.466      22.086    
  23.137      23.502      23.138      22.087      20.467      18.443      16.200      13.913      11.730      9.7602    
  8.0594      6.6414      5.4933      4.5870      3.8888      3.3661      2.9903      2.7388      2.5948      2.5480    
  2.4783      2.5628      2.7388      3.0196      3.4235      3.9730      4.6948      5.6188      6.7747      8.1852    
  9.8470      11.712      13.691      15.663      17.486      19.018      20.127      20.710      20.710      20.128    
  19.020      17.487      15.661      13.689      11.710      9.8469      8.1862      6.7758      5.6193      4.6949    
  3.9730      3.4235      3.0196      2.7388      2.5628      2.4783      2.4261      2.4663      2.5908      2.8111    
  3.1449      3.6153      4.2500      5.0816      6.1454      7.4731      9.0686      10.894      12.867      14.872    
  16.772      18.431      19.722      20.543      20.825      20.543      19.723      18.430      16.771      14.870    
  12.867      10.895      9.0705      7.4743      6.1456      5.0813      4.2497      3.6152      3.1449      2.8111    
  2.5908      2.4662      2.4663      2.4663      2.5387      2.6908      2.9368      3.2962      3.7933      4.4576    
  5.3207      6.4091      7.7230      9.2278      10.851      12.492      14.038      15.385      16.455      17.193    
  17.569      17.569      17.192      16.453      15.384      14.038      12.494      10.854      9.2298      7.7229    
  6.4077      5.3195      4.4572      3.7934      3.2963      2.9369      2.6908      2.5386      2.5908      2.5586    
  2.5908      2.6908      2.8687      3.1405      3.5284      4.0605      4.7677      5.6738      6.7760      8.0355    
  9.3767      10.700      11.904      12.908      13.670      14.188      14.481      14.575      14.481      14.187    
  13.670      12.909      11.906      10.702      9.3774      8.0343      6.7740      5.6725      4.7675      4.0609    
  3.5288      3.1406      2.8687      2.6908      2.8111      2.7511      2.7511      2.8111      2.9369      3.1406    
  3.4417      3.8666      4.4468      5.2076      6.1488      7.2299      8.3666      9.4476      10.365      11.044    
  11.468      11.674      11.740      11.747      11.747      11.740      11.675      11.469      11.045      10.364    
  9.4456      8.3640      7.2283      6.1490      5.2089      4.4480      3.8671      3.4417      3.1405      2.9368    
  3.1449      3.0594      3.0316      3.0593      3.1449      3.2963      3.5291      3.8674      4.3426      4.9817    
  5.7903      6.7331      7.7239      8.6386      9.3509      9.7730      9.8882      9.7590      9.5089      9.2817    
  9.1917      9.2821      9.5095      9.7597      9.8884      9.7719      9.3486      8.6365      7.7234      6.7347    
  5.7925      4.9831      4.3428      3.8671      3.5288      3.2962      3.6152      3.5053      3.4525      3.4525    
  3.5052      3.6151      3.7934      4.0612      4.4490      4.9842      5.6761      6.4979      7.3704      8.1673    
  8.7458      8.9938      8.8745      8.4493      7.8670      7.3222      6.9957      6.9958      7.3224      7.8671    
  8.4489      8.8734      8.9925      8.7458      8.1691      7.3731      6.4996      5.6761      4.9831      4.4481    
  4.0610      3.7934      4.2497      4.1173      4.0428      4.0185      4.0427      4.1171      4.2493      4.4567    
  4.7676      5.2102      5.7945      6.5008      7.2610      7.9554      8.4365      8.5724      8.2986      7.6538    
  6.7842      5.9104      5.2663      5.0296      5.2662      5.9101      6.7838      7.6534      8.2987      8.5735    
  8.4386      7.9575      7.2616      6.4996      5.7924      5.2089      4.7676      4.4571      5.0812      4.9295    
  4.8393      4.7968      4.7967      4.8393      4.9296      5.0808      5.3184      5.6714      6.1489      6.7360    
  7.3753      7.9592      8.3456      8.3954      8.0219      7.2334      6.1516      4.9941      4.0219      3.4676    
  3.4676      4.0217      4.9936      6.1515      7.2341      8.0234      8.3966      8.3455      7.9576      7.3731    
  6.7345      6.1490      5.6725      5.3195      6.1456      5.9812      5.8852      5.8348      5.8189      5.8347    
  5.8855      5.9818      6.1454      6.4063      6.7719      7.2269      7.7239      8.1711      8.4407      8.3975    
  7.9437      7.0611      5.8392      4.4707      3.2144      2.3311      2.0132      2.3312      3.2143      4.4705    
  5.8394      7.0618      7.9439      8.3965      8.4386      8.1693      7.7234      7.2281      6.7740      6.4079    
  7.4745      7.3113      7.2243      7.1826      7.1659      7.1656      7.1823      7.2248      7.3123      7.4752    
  7.7230      8.0328      8.3617      8.6349      8.7457      8.5745      8.0245      7.0623      5.7477      4.2392    
  2.7705      1.6008     0.95249     0.95281      1.6013      2.7706      4.2392      5.7478      7.0619      8.0232    
  8.5733      8.7460      8.6367      8.3638      8.0341      7.7231      9.0709      8.9489      8.8939      8.8848    
  8.8906      8.8940      8.8899      8.8843      8.8944      8.9501      9.0725      9.2312      9.3769      9.4436    
  9.3464      8.9915      8.2988      7.2347      5.8398      4.2394      2.6303      1.2464     0.30975     -.21185E-01
 0.31032      1.2466      2.6300      4.2393      5.8398      7.2341      8.2982      8.9925      9.3490      9.4457    
  9.3770      9.2298      10.895      10.895      10.914      10.973      11.036      11.074      11.073      11.035    
  10.972      10.914      10.895      10.896      10.856      10.704      10.364      9.7709      8.8723      7.6529    
  6.1514      4.4707      2.7708      1.2467     0.95030E-01 -.52498     -.52474     0.95165E-01  1.2462      2.7704    
  4.4710      6.1519      7.6531      8.8730      9.7722      10.365      10.702      10.854      12.867      13.100    
  13.275      13.456      13.629      13.750      13.793      13.750      13.629      13.455      13.273      13.098    
  12.867      12.496      11.908      11.046      9.8882      8.4483      6.7834      4.9936      3.2144      1.6014    
 0.31034     -.52473     -.81345     -.52454     0.30993      1.6006      3.2143      4.9943      6.7838      8.4484    
  9.8884      11.046      11.906      12.494      14.870      15.467      15.917      16.310      16.674      16.956    
  17.108      17.108      16.956      16.675      16.310      15.915      15.464      14.869      14.038      12.910    
  11.470      9.7602      7.8672      5.9100      4.0215      2.3311     0.95271     -.21026E-01 -.52454     -.52426    
 -.20819E-01 0.95228      2.3307      4.0220      5.9104      7.8668      9.7594      11.470      12.909      14.038    
  16.770      17.856      18.719      19.457      20.133      20.696      21.068      21.197      21.068      20.698    
  20.136      19.458      18.718      17.853      16.768      15.383      13.670      11.675      9.5099      7.3226    
  5.2662      3.4674      2.0129     0.95234     0.30993     0.95386E-01 0.31054     0.95266      2.0128      3.4675    
  5.2665      7.3224      9.5091      11.675      13.670      15.384      18.430      20.096      21.504      22.746    
  23.895      24.912      25.673      26.080      26.079      25.672      24.912      23.897      22.748      21.505    
  20.096      18.429      16.452      14.186      11.740      9.2821      6.9959      5.0297      3.4676      2.3309    
  1.6006      1.2462      1.2466      1.6012      2.3310      3.4675      5.0298      6.9960      9.2818      11.740    
  14.187      16.453      19.723      22.001      24.051      25.945      27.749      29.429      30.809      31.715    
  32.030      31.713      30.806      29.428      27.750      25.947      24.053      22.002      19.722      17.192    
  14.480      11.747      9.1917      6.9959      5.2666      4.0221      3.2144      2.7702      2.6299      2.7706    
  3.2144      4.0217      5.2664      6.9961      9.1917      11.746      14.481      17.192      20.544      23.393    
  26.111      28.757      31.379      33.932      36.186      37.869      38.768      38.767      37.868      36.184    
  33.931      31.378      28.757      26.113      23.394      20.544      17.569      14.575      11.747      9.2816    
  7.3223      5.9106      4.9944      4.4708      4.2391      4.2394      4.4709      4.9938      5.9101      7.3226    
  9.2821      11.746      14.575      17.569      20.826      24.129      27.458      30.865      34.393      37.976    
  41.329      44.067      45.856      46.477      45.857      44.069      41.329      37.974      34.390      30.863    
  27.459      24.129      20.825      17.569      14.481      11.740      9.5087      7.8668      6.7842      6.1518    
  5.8394      5.7479      5.8400      6.1516      6.7833      7.8669      9.5097      11.740      14.480      17.569    
  20.544      24.129      27.926      31.997      36.397      41.055      45.638      49.643      52.596      54.160    
  54.160      52.597      49.647      45.640      41.053      36.395      31.997      27.927      24.128      20.543    
  17.193      14.188      11.674      9.7588      8.4488      7.6536      7.2336      7.0614      7.0623      7.2345    
  7.6527      8.4482      9.7600      11.675      14.186      17.192      19.722      23.394      27.458      31.997    
  37.101      42.726      48.519      53.876      58.199      61.008      61.979      61.006      58.200      53.880    
  48.520      42.724      37.101      31.998      27.458      23.391      19.722      16.455      13.670      11.468    
  9.8882      8.8743      8.2985      8.0219      7.9437      8.0244      8.2987      8.8721      9.8882      11.470    
  13.670      16.452      18.429      22.002      26.113      30.864      36.396      42.725      49.533      56.166    
  61.931      66.183      68.429      68.425      66.179      61.931      56.168      49.532      42.724      36.398    
  30.866      26.110      22.000      18.431      15.385      12.908      11.044      9.7736      8.9939      8.5719    
  8.3950      8.3977      8.5748      8.9914      9.7707      11.047      12.910      15.383      16.768      20.096    
  24.053      28.757      34.390      41.054      48.520      56.167      63.240      68.966      72.662      73.929    
  72.655      68.963      63.242      56.166      48.516      41.054      34.395      28.757      24.048      20.096    
  16.772      14.038      11.904      10.365      9.3511      8.7458      8.4364      8.3455      8.4406      8.7457    
  9.3466      10.365      11.908      14.038      14.868      17.854      21.506      25.947      31.378      37.974    
  45.640      53.878      61.928      68.962      74.129      76.836      76.832      74.125      68.966      61.932    
  53.874      45.636      37.977      31.382      25.944      21.502      17.857      14.872      12.492      10.700    
  9.4470      8.6385      8.1678      7.9559      7.9588      8.1706      8.6352      9.4442      10.703      12.495    
  12.867      15.464      18.718      22.748      27.750      33.931      41.329      49.647      58.200      66.179    
  72.655      76.832      78.265      76.831      72.659      66.186      58.200      49.641      41.329      33.935    
  27.750      22.743      18.718      15.470      12.867      10.851      9.3766      8.3665      7.7239      7.3704    
  7.2610      7.3754      7.7239      8.3616      9.3767      10.856      10.897      13.098      15.914      19.458    
  23.897      29.428      36.184      44.069      52.600      61.009      68.426      73.926      76.831      76.829    
  73.926      68.431      61.011      52.595      44.066      36.187      29.431      23.893      19.455      15.918    
  13.102      10.893      9.2278      8.0360      7.2301      6.7326      6.4975      6.5013      6.7366      7.2266    
  8.0321      9.2312      9.0727      10.895      13.273      16.310      20.136      24.912      30.806      37.867    
  45.857      54.161      61.981      68.429      72.659      74.125      72.653      68.426      61.983      54.161    
  45.854      37.868      30.810      24.912      20.131      16.309      13.277      10.895      9.0688      7.7231    
  6.7760      6.1488      5.7903      5.6761      5.7944      6.1489      6.7719      7.7230      7.4753      8.9497    
  10.913      13.456      16.676      20.698      25.672      31.713      38.766      46.476      54.159      61.010    
  66.186      68.968      68.963      66.179      61.008      54.161      46.475      38.765      31.716      25.675    
  20.696      16.673      13.457      10.915      8.9479      7.4731      6.4087      5.6737      5.2079      4.9819    
  4.9839      5.2098      5.6715      6.4068      6.1454      7.3122      8.8942      10.972      13.629      16.957    
  21.068      26.079      32.030      38.766      45.853      52.594      58.200      61.934      63.244      61.931    
  58.199      52.597      45.855      38.765      32.030      26.081      21.068      16.954      13.629      10.974    
  8.8940      7.3099      6.1454      5.3207      4.7677      4.4468      4.3426      4.4490      4.7677      5.3185    
  5.0807      5.9817      7.2249      8.8844      11.035      13.750      17.108      21.198      26.081      31.716    
  37.868      44.065      49.641      53.876      56.168      56.168      53.878      49.645      44.068      37.868    
  31.714      26.080      21.198      17.107      13.749      11.036      8.8852      7.2237      5.9807      5.0817    
  4.4576      4.0604      3.8666      3.8676      4.0614      4.4567      4.2493      4.9296      5.8855      7.1824    
  8.8901      11.073      13.793      17.107      21.068      25.674      30.811      36.187      41.329      45.637    
  48.516      49.530      48.518      45.639      41.330      36.186      30.808      25.673      21.068      17.107    
  13.792      11.074      8.8909      7.1825      5.8848      4.9295      4.2499      3.7933      3.5285      3.4418    
  3.5291      3.7933      3.6151      4.1172      4.8394      5.8347      7.1657      8.8940      11.074      13.749    
  16.954      20.695      24.912      29.432      33.935      37.977      41.054      42.723      42.723      41.054    
  37.976      33.933      29.429      24.912      20.697      16.956      13.749      11.073      8.8941      7.1659    
  5.8347      4.8393      4.1173      3.6152      3.2961      3.1405      3.1406      3.2963      3.1449      3.5053    