Band structure                          
   1.00000000000000     
     3.216290    0.000000    0.000000
    -1.608145    2.785389    0.000000
     0.000000    0.000000    5.239962
   Ga   N 
     2     2
Direct
  0.333333  0.666667  0.500880
  0.666667  0.333333  0.000880
  0.333333  0.666667  0.124120
  0.666667  0.333333  0.624120
 
   36   36   60
 0.24406609069E+01 0.24783261929E+01 0.25948136435E+01 0.28001851095E+01 0.31096666092E+01
 0.35424930405E+01 0.41214782231E+01 0.48726708065E+01 0.58237524807E+01 0.69980935418E+01
 0.83935387723E+01 0.99708967619E+01 0.11654353681E+02 0.13340372494E+02 0.14914175244E+02
 0.16266239774E+02 0.17303536101E+02 0.17955577135E+02 0.18178104071E+02 0.17955825499E+02
 0.17303602697E+02 0.16265596932E+02 0.14912840289E+02 0.13339206195E+02 0.11654355312E+02
 0.99721283833E+01 0.83950459250E+01 0.69989406474E+01 0.58238295920E+01 0.48724370819E+01
 0.41213006574E+01 0.35424431778E+01 0.31096936946E+01 0.28002251134E+01 0.25948136007E+01
 0.24782976531E+01 0.24783344473E+01 0.24783520392E+01 0.25480158334E+01 0.26938453913E+01
 0.29280540062E+01 0.32675683074E+01 0.37335085351E+01 0.43505228347E+01 0.51448661397E+01
 0.61364716146E+01 0.73196897731E+01 0.86559676173E+01 0.10073724592E+02 0.11478850582E+02
 0.12773408615E+02 0.13874928378E+02 0.14727963159E+02 0.15304051968E+02 0.15593074207E+02
 0.15592931596E+02 0.15303449787E+02 0.14726829358E+02 0.13873944375E+02 0.12773704159E+02
 0.11480798775E+02 0.10076271167E+02 0.86575006866E+01 0.73195574357E+01 0.61354025755E+01
 0.51439637511E+01 0.43502148942E+01 0.37335520341E+01 0.32676597422E+01 0.29281075656E+01
 0.26938610962E+01 0.25479954456E+01 0.25948266185E+01 0.25627876733E+01 0.25948079442E+01
 0.26938351529E+01 0.28685423387E+01 0.31331982805E+01 0.35076156544E+01 0.40164739415E+01
 0.46868219763E+01 0.55377694242E+01 0.65620962448E+01 0.77167826646E+01 0.89237421643E+01
 0.10085004422E+02 0.11106908078E+02 0.11923853985E+02 0.12512032879E+02 0.12887208091E+02
 0.13087512792E+02 0.13149308594E+02 0.13087201231E+02 0.12886669520E+02 0.12511783831E+02
 0.11924615085E+02 0.11108693938E+02 0.10086736777E+02 0.89241612751E+01 0.77157008740E+01
 0.65605147955E+01 0.55368072334E+01 0.46867658485E+01 0.40168596750E+01 0.35079263938E+01
 0.31332896853E+01 0.28685335494E+01 0.26938374138E+01 0.28002022845E+01 0.27387825897E+01
 0.27387676477E+01 0.28001838093E+01 0.29280696829E+01 0.31333097761E+01 0.34335659964E+01
 0.38531242216E+01 0.44204248891E+01 0.51572593353E+01 0.60600583757E+01 0.70846282085E+01
 0.81435174306E+01 0.91241424027E+01 0.99210934962E+01 0.10468900498E+02 0.10761904457E+02
 0.10853449612E+02 0.10834037618E+02 0.10795691455E+02 0.10795728272E+02 0.10834203760E+02
 0.10853920768E+02 0.10762758139E+02 0.10469674908E+02 0.99208982858E+01 0.91226121188E+01
 0.81414825826E+01 0.70834362346E+01 0.60602663308E+01 0.51582750156E+01 0.44213365833E+01
 0.38535323493E+01 0.34336097712E+01 0.31332520375E+01 0.29280462353E+01 0.31096936943E+01
 0.30196502986E+01 0.29902932636E+01 0.30196068720E+01 0.31096730983E+01 0.32676845599E+01
 0.35081231416E+01 0.38538206482E+01 0.43338638029E+01 0.49729768954E+01 0.57738197556E+01
 0.66974832783E+01 0.76538873537E+01 0.85163755331E+01 0.91580088227E+01 0.94950104985E+01
 0.95187714165E+01 0.93030068828E+01 0.89824978321E+01 0.87097790330E+01 0.86040214889E+01
 0.87101195103E+01 0.89830884459E+01 0.93035896008E+01 0.95188185551E+01 0.94939874627E+01
 0.91560927546E+01 0.85147386624E+01 0.76537661873E+01 0.66989045064E+01 0.57755978665E+01
 0.49739913413E+01 0.43339820432E+01 0.38535657078E+01 0.35079133763E+01 0.32676124184E+01
 0.35424546508E+01 0.34235715050E+01 0.33661014169E+01 0.33660485112E+01 0.34234802705E+01
 0.35423943224E+01 0.37335169875E+01 0.40171432711E+01 0.44221505892E+01 0.49748993871E+01
 0.56829849715E+01 0.65159505443E+01 0.73893968029E+01 0.81718448443E+01 0.87176461184E+01
 0.89158682723E+01 0.87353633504E+01 0.82461512314E+01 0.76066711171E+01 0.70196884359E+01
 0.66709670991E+01 0.66710379390E+01 0.70198771179E+01 0.76068254790E+01 0.82459397367E+01
 0.87345793617E+01 0.89149429937E+01 0.87175905720E+01 0.81732553325E+01 0.73915603834E+01
 0.65173830551E+01 0.56829496485E+01 0.49740133439E+01 0.44214232342E+01 0.40169086786E+01
 0.37335267135E+01 0.41212315445E+01 0.39730228721E+01 0.38889134336E+01 0.38614492279E+01
 0.38888402096E+01 0.39729281740E+01 0.41209992866E+01 0.43497866315E+01 0.46867709986E+01
 0.51592127617E+01 0.57771856419E+01 0.65185308551E+01 0.73089503899E+01 0.80213503639E+01
 0.85016855207E+01 0.86161326368E+01 0.83031148378E+01 0.76086518316E+01 0.66883582531E+01
 0.57719010701E+01 0.50998869071E+01 0.48534341117E+01 0.50997112889E+01 0.57715652397E+01
 0.66879608693E+01 0.76084150913E+01 0.83033698373E+01 0.86171752803E+01 0.85033902718E+01
 0.80228774679E+01 0.73092256149E+01 0.65173340518E+01 0.57755287533E+01 0.51583126631E+01
 0.46868479791E+01 0.43501912120E+01 0.48723069626E+01 0.46947944843E+01 0.45870887999E+01
 0.45357098169E+01 0.45356408725E+01 0.45870526540E+01 0.46948586977E+01 0.48720260006E+01
 0.51430644008E+01 0.55358581163E+01 0.60601247394E+01 0.67000586019E+01 0.73934521938E+01
 0.80242521446E+01 0.84406197421E+01 0.84964513340E+01 0.81036019836E+01 0.72755037418E+01
 0.61436712029E+01 0.49369286786E+01 0.39262138330E+01 0.33509566287E+01 0.33509067515E+01
 0.39259299562E+01 0.49363978751E+01 0.61434092851E+01 0.72760754403E+01 0.81048382094E+01
 0.84974644468E+01 0.84405563905E+01 0.80229471108E+01 0.73915810226E+01 0.66987638576E+01
 0.60601590407E+01 0.55368768760E+01 0.51440097109E+01 0.58238295908E+01 0.56190676403E+01
 0.54933193741E+01 0.54248255254E+01 0.54028115117E+01 0.54246555903E+01 0.54935405097E+01
 0.56196054464E+01 0.58237575963E+01 0.61343930171E+01 0.65587926223E+01 0.70821200466E+01
 0.76538920392E+01 0.81747214638E+01 0.85050741498E+01 0.84983326958E+01 0.80492723449E+01
 0.71407715854E+01 0.58702765981E+01 0.44435113910E+01 0.31331787462E+01 0.22121361421E+01
 0.18808069901E+01 0.22123644742E+01 0.31331404560E+01 0.44432442691E+01 0.58703970776E+01
 0.71413175029E+01 0.80493753112E+01 0.84973570859E+01 0.85034593859E+01 0.81734813395E+01
 0.76537661864E+01 0.70832215833E+01 0.65605017789E+01 0.61356032615E+01 0.69992152827E+01
 0.67756424885E+01 0.66412273316E+01 0.65667821770E+01 0.65333555757E+01 0.65330828360E+01
 0.65665291825E+01 0.66417273977E+01 0.67766007694E+01 0.69997910301E+01 0.73195825181E+01
 0.77144386874E+01 0.81395500247E+01 0.85133641646E+01 0.87174986812E+01 0.86180269981E+01
 0.81057311562E+01 0.71416751202E+01 0.57892850475E+01 0.42189947759E+01 0.26813498229E+01
 0.14534799207E+01 0.77202938667E+00 0.77242673818E+00 0.14540759437E+01 0.26814332014E+01
 0.42188824001E+01 0.57893642931E+01 0.71413546581E+01 0.81045544053E+01 0.86169611213E+01
 0.87178537370E+01 0.85150238274E+01 0.81413060686E+01 0.77154867152E+01 0.73197952800E+01
 0.83954949875E+01 0.81862555792E+01 0.80589552740E+01 0.79953710104E+01 0.79672116506E+01
 0.79589476643E+01 0.79664806111E+01 0.79949654456E+01 0.80593724249E+01 0.81871325513E+01
 0.83966463460E+01 0.86587064538E+01 0.89239728720E+01 0.91210986906E+01 0.91543425095E+01
 0.89140085247E+01 0.83033930409E+01 0.72764879528E+01 0.58707394817E+01 0.42191540389E+01
 0.25355603624E+01 0.10758844258E+01 0.83495654140E-01 -.26782513134E+00 0.84160091902E-01
 0.10761567121E+01 0.25352744624E+01 0.42190965621E+01 0.58708461389E+01 0.72760057944E+01
 0.83028516620E+01 0.89148939934E+01 0.91565418167E+01 0.91226497633E+01 0.89237252305E+01
 0.86574770075E+01 0.99724718650E+01 0.98472967173E+01 0.97597461142E+01 0.97322974482E+01
 0.97340378335E+01 0.97401284376E+01 0.97396544750E+01 0.97332514476E+01 0.97318530634E+01
 0.97592538318E+01 0.98467947222E+01 0.99731949561E+01 0.10078019101E+02 0.10087997454E+02
 0.99209167090E+01 0.94930720647E+01 0.87336250629E+01 0.76079838404E+01 0.61434475750E+01
 0.44434875280E+01 0.26817174216E+01 0.10763218277E+01 -.14947778969E+00 -.81314912824E+00
 -.81286623358E+00 -.14931480996E+00 0.10757527571E+01 0.26812434108E+01 0.44438252309E+01
 0.61438828798E+01 0.76080111332E+01 0.87341264062E+01 0.94943204148E+01 0.99212645905E+01
 0.10086332819E+02 0.10075843532E+02 0.11654355317E+02 0.11710979578E+02 0.11730375050E+02
 0.11777957843E+02 0.11846558002E+02 0.11900894970E+02 0.11920793816E+02 0.11900601434E+02
 0.11846507295E+02 0.11777520314E+02 0.11728571533E+02 0.11708945316E+02 0.11654367028E+02
 0.11482202185E+02 0.11110358003E+02 0.10470546329E+02 0.95187681439E+01 0.82455224655E+01
 0.66876686007E+01 0.49363224168E+01 0.31331663118E+01 0.14541188338E+01 0.84194430405E-01
 -.81285128486E+00 -.11248455287E+01 -.81264455835E+00 0.83711025184E-01 0.14532361514E+01
 0.31331404615E+01 0.49370931512E+01 0.66880299779E+01 0.82453631067E+01 0.95188185597E+01
 0.10470262894E+02 0.11108680915E+02 0.11480196824E+02 0.13338849667E+02 0.13689188163E+02
 0.13913020975E+02 0.14101156042E+02 0.14292588734E+02 0.14447740296E+02 0.14532979588E+02
 0.14532908576E+02 0.14448167127E+02 0.14293746739E+02 0.14101419766E+02 0.13911225862E+02
 0.13686798462E+02 0.13337879043E+02 0.12773609731E+02 0.11925417042E+02 0.10763656750E+02
 0.93040667760E+01 0.76068918833E+01 0.57714527478E+01 0.39257576497E+01 0.22121606651E+01
 0.77232255206E+00 -.26762750489E+00 -.81264265573E+00 -.81232816585E+00 -.26740813022E+00
 0.77179556644E+00 0.22117704663E+01 0.39262773239E+01 0.57719822439E+01 0.76064574722E+01
 0.93032436026E+01 0.10763212797E+02 0.11925032089E+02 0.12773310832E+02 0.14912361565E+02
 0.15661218671E+02 0.16199985912E+02 0.16628146641E+02 0.17023173584E+02 0.17359226003E+02
 0.17582463006E+02 0.17660056722E+02 0.17582237234E+02 0.17360197746E+02 0.17025277713E+02
 0.16629382086E+02 0.16199268436E+02 0.15659582690E+02 0.14910989805E+02 0.13872944132E+02
 0.12511810525E+02 0.10854387020E+02 0.89834466131E+01 0.70200180899E+01 0.50997048815E+01
 0.33507426248E+01 0.18805368751E+01 0.77190554504E+00 0.83715710829E-01 -.14907382877E+00
 0.84423440434E-01 0.77224354280E+00 0.18803282651E+01 0.33508371115E+01 0.51001208999E+01
 0.70198281117E+01 0.89826097217E+01 0.10853958418E+02 0.12512275572E+02 0.13873920690E+02
 0.16265289716E+02 0.17486396263E+02 0.18443498064E+02 0.19229800037E+02 0.19937226167E+02
 0.20566166253E+02 0.21037662452E+02 0.21289121157E+02 0.21288430520E+02 0.21036644305E+02
 0.20566399429E+02 0.19938672206E+02 0.19231287154E+02 0.18444353701E+02 0.17486528030E+02
 0.16264603206E+02 0.14725889307E+02 0.12886258492E+02 0.10834188328E+02 0.87102314815E+01
 0.66711879549E+01 0.48535832962E+01 0.33509893618E+01 0.22119903936E+01 0.14532464606E+01
 0.10756711368E+01 0.10761311688E+01 0.14539408210E+01 0.22120664060E+01 0.33507795325E+01
 0.48536808516E+01 0.66712356743E+01 0.87098017644E+01 0.10833919374E+02 0.12886916260E+02
 0.14727052414E+02 0.17303602697E+02 0.19019504559E+02 0.20467476970E+02 0.21721625236E+02
 0.22868536737E+02 0.23927478103E+02 0.24794521707E+02 0.25362506249E+02 0.25559459912E+02
 0.25360832796E+02 0.24792500274E+02 0.23926304514E+02 0.22868549873E+02 0.21722718087E+02
 0.20469151933E+02 0.19020681693E+02 0.17303508377E+02 0.15302970437E+02 0.13086840002E+02
 0.10795596158E+02 0.86040546813E+01 0.66711486148E+01 0.51001836049E+01 0.39264607339E+01
 0.31331663080E+01 0.26810273835E+01 0.25351112995E+01 0.26814217439E+01 0.31331787479E+01
 0.39259973958E+01 0.50999560195E+01 0.66713021824E+01 0.86040214897E+01 0.10795404544E+02
 0.13087188213E+02 0.15303759549E+02 0.17956154736E+02 0.20128029933E+02 0.22087174669E+02
 0.23882746049E+02 0.25585445798E+02 0.27215242947E+02 0.28645108099E+02 0.29709312393E+02
 0.30276807955E+02 0.30276420112E+02 0.29708396125E+02 0.28643875962E+02 0.27213609711E+02
 0.25583918306E+02 0.23882461358E+02 0.22088260502E+02 0.20129088414E+02 0.17956203930E+02
 0.15592929237E+02 0.13149182748E+02 0.10795578838E+02 0.87097159840E+01 0.70197493321E+01
 0.57721385168E+01 0.49372168108E+01 0.44436227214E+01 0.42188852753E+01 0.42190493731E+01
 0.44436031478E+01 0.49365902773E+01 0.57716323095E+01 0.70200061980E+01 0.87101187996E+01
 0.10795460343E+02 0.13149039834E+02 0.15593224038E+02 0.18178798395E+02 0.20710189304E+02
 0.23136850078E+02 0.25486242809E+02 0.27812886770E+02 0.30124722884E+02 0.32271390764E+02
 0.34019783813E+02 0.35162220461E+02 0.35559418150E+02 0.35163153526E+02 0.34021381453E+02
 0.32272073916E+02 0.30123101584E+02 0.27810266204E+02 0.25485182638E+02 0.23137481013E+02
 0.20710554156E+02 0.18178416905E+02 0.15593197998E+02 0.13087534327E+02 0.10833941588E+02
 0.89822735655E+01 0.76064748797E+01 0.66883629288E+01 0.61438515324E+01 0.58704942204E+01
 0.57894992072E+01 0.58709709207E+01 0.61436015594E+01 0.66875948165E+01 0.76066221144E+01
 0.89831921555E+01 0.10834075265E+02 0.13086831486E+02 0.15593050525E+02 0.17956392932E+02
 0.20710551356E+02 0.23500671603E+02 0.26342186463E+02 0.29282304656E+02 0.32318963430E+02
 0.35280364726E+02 0.37866365066E+02 0.39780350864E+02 0.40796053376E+02 0.40796081155E+02
 0.39781656912E+02 0.37869437496E+02 0.35282269662E+02 0.32317645149E+02 0.29280203939E+02
 0.26342030635E+02 0.23501142816E+02 0.20709677883E+02 0.17955596422E+02 0.15304132791E+02
 0.12887381497E+02 0.10853510743E+02 0.93027734995E+01 0.82457731061E+01 0.76084561545E+01
 0.72756116820E+01 0.71410130155E+01 0.71418248631E+01 0.72764496507E+01 0.76077755576E+01
 0.82452259618E+01 0.93038121507E+01 0.10854288231E+02 0.12886331817E+02 0.15303152019E+02
 0.17303536113E+02 0.20128979904E+02 0.23137218118E+02 0.26341780182E+02 0.29795907936E+02
 0.33502785125E+02 0.37281376497E+02 0.40777994939E+02 0.43605508671E+02 0.45436939700E+02
 0.46068057346E+02 0.45434603561E+02 0.43605600428E+02 0.40780994889E+02 0.37282747787E+02
 0.33501522598E+02 0.29795661723E+02 0.26343114261E+02 0.23136786677E+02 0.20126859753E+02
 0.17303508388E+02 0.14728095947E+02 0.12512289237E+02 0.10762113854E+02 0.95187681519E+01
 0.87351810049E+01 0.83029439662E+01 0.81035570971E+01 0.80492723585E+01 0.81056315266E+01
 0.83031839384E+01 0.87334524536E+01 0.95187714291E+01 0.10763826709E+02 0.12512019849E+02
 0.14726026942E+02 0.16264360684E+02 0.19020463670E+02 0.22088310375E+02 0.25485511627E+02
 0.29280841247E+02 0.33502527507E+02 0.37984531712E+02 0.42350067675E+02 0.46137025648E+02
 0.48913661369E+02 0.50375036074E+02 0.50371983843E+02 0.48909249364E+02 0.46136938332E+02
 0.42351586574E+02 0.37983456019E+02 0.33501542932E+02 0.29283019802E+02 0.25487122205E+02
 0.22086052146E+02 0.19018456046E+02 0.16266296065E+02 0.13874883701E+02 0.11923894455E+02
 0.10469232395E+02 0.94954156139E+01 0.89159480884E+01 0.86158732396E+01 0.84962161253E+01
 0.84983212884E+01 0.86180722035E+01 0.89139776786E+01 0.94931419378E+01 0.10470877743E+02
 0.11925793552E+02 0.13873012463E+02 0.14910733083E+02 0.17486410767E+02 0.20469187797E+02
 0.23882676866E+02 0.27810739714E+02 0.32318143940E+02 0.37282577058E+02 0.42350302457E+02
 0.47021440118E+02 0.50773816761E+02 0.53198061639E+02 0.54033171751E+02 0.53192912442E+02
 0.50771449519E+02 0.47023096485E+02 0.42349646977E+02 0.37279305638E+02 0.32318521453E+02
 0.27814402689E+02 0.23882730089E+02 0.20465709773E+02 0.17486281320E+02 0.14913953242E+02
 0.12773192697E+02 0.11106915846E+02 0.99213206968E+01 0.91582337331E+01 0.87177128105E+01
 0.85016319875E+01 0.84405501290E+01 0.85050585690E+01 0.87175970853E+01 0.91545666612E+01
 0.99211311735E+01 0.11110363257E+02 0.12773384903E+02 0.13337543549E+02 0.15659791164E+02
 0.18444641540E+02 0.21722702791E+02 0.25583893274E+02 0.30123315142E+02 0.35282080514E+02
 0.40779600528E+02 0.46134951599E+02 0.50770882015E+02 0.54179172225E+02 0.55982641167E+02
 0.55980122317E+02 0.54177015141E+02 0.50774217958E+02 0.46137767154E+02 0.40776266520E+02
 0.35278624978E+02 0.30125870054E+02 0.25586955483E+02 0.21720235698E+02 0.18441832021E+02
 0.15662351156E+02 0.13340230451E+02 0.11478808083E+02 0.10084825084E+02 0.91238671625E+01
 0.85163467443E+01 0.81721299988E+01 0.80215533690E+01 0.80241188328E+01 0.81745642591E+01
 0.85135360583E+01 0.91213363370E+01 0.10087772891E+02 0.11481595318E+02 0.11654353643E+02
 0.13686995519E+02 0.16199531047E+02 0.19231457664E+02 0.22868584834E+02 0.27213570331E+02
 0.32272041048E+02 0.37869461592E+02 0.43605695924E+02 0.48909389828E+02 0.53193037618E+02
 0.55980181430E+02 0.56945056477E+02 0.55978829342E+02 0.53196354642E+02 0.48915250375E+02
 0.43605600377E+02 0.37864499777E+02 0.32271379631E+02 0.27217402395E+02 0.22868549834E+02
 0.19227472450E+02 0.16199747198E+02 0.13691276911E+02 0.11654366985E+02 0.10073553698E+02
 0.89235238482E+01 0.81433973103E+01 0.76538920017E+01 0.73894603922E+01 0.73090195414E+01
 0.73935072508E+01 0.76538873153E+01 0.81394183385E+01 0.89237291851E+01 0.10077809719E+02
 0.99736788228E+01 0.11709363910E+02 0.13911238312E+02 0.16629292910E+02 0.19938778610E+02
 0.23926350071E+02 0.28643690634E+02 0.34021655130E+02 0.39783205608E+02 0.45436798162E+02
 0.50372755206E+02 0.54031138711E+02 0.55978841570E+02 0.55977151113E+02 0.54030450196E+02
 0.50376645076E+02 0.45439285046E+02 0.39779811543E+02 0.34018659867E+02 0.28646328839E+02
 0.23928740019E+02 0.19935703832E+02 0.16626660505E+02 0.13914364508E+02 0.11712292534E+02
 0.99708772722E+01 0.86559848662E+01 0.77169461620E+01 0.70846646273E+01 0.66972673232E+01
 0.65158092706E+01 0.65187211838E+01 0.67002758689E+01 0.70819442199E+01 0.77140610802E+01
 0.86587129363E+01 0.83968607354E+01 0.98470147659E+01 0.11728594410E+02 0.14101233467E+02
 0.17025070297E+02 0.20566239365E+02 0.24792257285E+02 0.29708180873E+02 0.35163564152E+02
 0.40797524397E+02 0.46069800436E+02 0.50375476822E+02 0.53196359542E+02 0.54176403725E+02
 0.53191297515E+02 0.50373096539E+02 0.46071379321E+02 0.40796957398E+02 0.35160525887E+02
 0.29708664917E+02 0.24795822238E+02 0.20566152658E+02 0.17021477026E+02 0.14101002793E+02
 0.11731893500E+02 0.98471986493E+01 0.83937734454E+01 0.73197967081E+01 0.65621145842E+01
 0.60600550656E+01 0.57737945659E+01 0.56829359991E+01 0.57771417184E+01 0.60600959923E+01
 0.65587872996E+01 0.73196661220E+01 0.69998629705E+01 0.81869583343E+01 0.97590006115E+01
 0.11777337172E+02 0.14293638751E+02 0.17360141704E+02 0.21036589074E+02 0.25360566026E+02
 0.30275725271E+02 0.35558524211E+02 0.40795694523E+02 0.45437689926E+02 0.48915281177E+02
 0.50775480305E+02 0.50771986826E+02 0.48909891900E+02 0.45436809705E+02 0.40797006982E+02
 0.35557588245E+02 0.30274858998E+02 0.25362948781E+02 0.21038720916E+02 0.17358367838E+02
 0.14291499857E+02 0.11778724585E+02 0.97606797520E+01 0.81853026493E+01 0.69981753192E+01
 0.61363999260E+01 0.55377576312E+01 0.51573828567E+01 0.49730205113E+01 0.49747357944E+01
 0.51590515601E+01 0.55359395189E+01 0.61346180595E+01 0.58237524948E+01 0.67764910813E+01
 0.80591651899E+01 0.97316652566E+01 0.11846491426E+02 0.14448409277E+02 0.17582696492E+02
 0.21288858537E+02 0.25559353802E+02 0.30275682284E+02 0.35160242175E+02 0.39778697106E+02
 0.43605695976E+02 0.46139506986E+02 0.47024882265E+02 0.46137178297E+02 0.43605508673E+02
 0.39781261508E+02 0.35161526123E+02 0.30274752277E+02 0.25559459926E+02 0.21290464177E+02
 0.17582715944E+02 0.14446797214E+02 0.11846507305E+02 0.97332360228E+01 0.80589233483E+01
 0.67745996929E+01 0.58237576117E+01 0.51449209611E+01 0.46868400973E+01 0.44204126750E+01
 0.43338638174E+01 0.44221741591E+01 0.46868089443E+01 0.51431029043E+01 0.48719851503E+01
 0.56195334902E+01 0.66416746750E+01 0.79950193660E+01 0.97334294763E+01 0.11900800998E+02
 0.14533110882E+02 0.17660484585E+02 0.21289899322E+02 0.25363142041E+02 0.29708926975E+02
 0.34018187351E+02 0.37864654015E+02 0.40777578253E+02 0.42351048620E+02 0.42351261129E+02
 0.40779208706E+02 0.37867987475E+02 0.34020529945E+02 0.29708297492E+02 0.25361474036E+02
 0.21289620561E+02 0.17660802858E+02 0.14532579444E+02 0.11900480934E+02 0.97344015423E+01
 0.79957115752E+01 0.66407670936E+01 0.56186823100E+01 0.48727025006E+01 0.43505327641E+01
 0.40164461319E+01 0.38531455217E+01 0.38539080117E+01 0.40172200743E+01 0.43498003750E+01
 0.41209867562E+01 0.46948552306E+01 0.54935330256E+01 0.65666075472E+01 0.79667023860E+01
 0.97398011834E+01 0.11920520156E+02 0.14532364748E+02 0.17582205039E+02 0.21038418980E+02
 0.24796070715E+02 0.28646412217E+02 0.32271549543E+02 0.35279312046E+02 0.37279626363E+02
 0.37982592144E+02 0.37280885043E+02 0.35281241001E+02 0.32272576554E+02 0.28645376858E+02
 0.24794030241E+02 0.21037415714E+02 0.17582475749E+02 0.14532562582E+02 0.11920302354E+02
 0.97400584347E+01 0.79674211404E+01 0.65667433399E+01 0.54930490416E+01 0.46947890564E+01
 0.41214216407E+01 0.37334679826E+01 0.35076316744E+01 0.34336036456E+01 0.35081201391E+01
 0.37334848513E+01 0.35423350145E+01 0.39729061493E+01 0.45870891112E+01 0.54247208258E+01
 0.65331483795E+01 0.79589611873E+01 0.97398987313E+01 0.11900152407E+02 0.14446524810E+02
 0.17358214280E+02 0.20566336946E+02 0.23929169258E+02 0.27217534226E+02 0.30125986009E+02
 0.32318241460E+02 0.33500685462E+02 0.33500727676E+02 0.32317989613E+02 0.30124820434E+02
 0.27215609257E+02 0.23927666633E+02 0.20566315441E+02 0.17359323550E+02 0.14447420837E+02
 0.11900171787E+02 0.97396269338E+01 0.79590452169E+01 0.65333945491E+01 0.54247350445E+01
 0.45870247449E+01 0.39730257236E+01 0.35424428706E+01 0.32675160043E+01 0.31331745770E+01
 0.31332958299E+01 0.32676421762E+01 0.31096666111E+01 0.34234832506E+01 0.38888679220E+01
 0.45356771965E+01 0.54027882975E+01 0.65332665235E+01 0.79671938510E+01 0.97341550145E+01
 0.11846491414E+02 0.14291829441E+02 0.17021748332E+02 0.19936036431E+02 0.22868584875E+02
 0.25586682337E+02 0.27814181873E+02 0.29282760220E+02 0.29795907926E+02 0.29281448976E+02
 0.27812192445E+02 0.25585156443E+02 0.22868536738E+02 0.19937493502E+02 0.17023652306E+02
 0.14292985143E+02 0.11846558000E+02 0.97336544699E+01 0.79667625862E+01 0.65331208223E+01
 0.54028115149E+01 0.45357311098E+01 0.38889093206E+01 0.34235086794E+01 0.31096731005E+01
 0.29280526298E+01 0.28685293190E+01 0.29280570939E+01 0.28002164713E+01 0.30196442152E+01
 0.33660651832E+01 0.38614587320E+01 0.45356686764E+01 0.54246523914E+01 0.65666366634E+01
 0.79957363914E+01 0.97334230595E+01 0.11779196162E+02 0.14101262550E+02 0.16626542157E+02
 0.19227367105E+02 0.21719963490E+02 0.23882706010E+02 0.25487422107E+02 0.26343710967E+02
 0.26343091846E+02 0.25486271923E+02 0.23882448173E+02 0.21721310041E+02 0.19229582415E+02
 0.16628175759E+02 0.14101543935E+02 0.11778554362E+02 0.97327305176E+01 0.79954001219E+01
 0.65665388983E+01 0.54246194071E+01 0.45356692916E+01 0.38614783425E+01 0.33660683974E+01
 0.30196487634E+01 0.28002505740E+01 0.26938642676E+01 0.26938399569E+01 0.25948167482E+01
 0.27387879321E+01 0.29902604569E+01 0.33660360678E+01 0.38888710286E+01 0.45869915625E+01
 0.54930384540E+01 0.66409285415E+01 0.80591683088E+01 0.97608305175E+01 0.11731913269E+02
 0.13913959896E+02 0.16199534113E+02 0.18441873072E+02 0.20465742531E+02 0.22086370807E+02
 0.23137221235E+02 0.23501547878E+02 0.23137541297E+02 0.22087443429E+02 0.20467480075E+02
 0.18443251325E+02 0.16199504083E+02 0.13912603970E+02 0.11730378158E+02 0.97601500732E+01
 0.80594012318E+01 0.66414414897E+01 0.54933224775E+01 0.45870191579E+01 0.38888412161E+01
 0.33660524127E+01 0.29902963680E+01 0.27388052961E+01 0.25948178573E+01 0.25479921503E+01
 0.24783003325E+01 0.25627543194E+01 0.27387533153E+01 0.30195804820E+01 0.34234972722E+01
 0.39730383168E+01 0.46948206130E+01 0.56187527316E+01 0.67747387798E+01 0.81851630779E+01
 0.98469801809E+01 0.11712050930E+02 0.13691091580E+02 0.15662594198E+02 0.17486376122E+02
 0.19018489457E+02 0.20127054620E+02 0.20709709706E+02 0.20710154689E+02 0.20128264076E+02
 0.19019825255E+02 0.17486677617E+02 0.15661184052E+02 0.13688736537E+02 0.11710388560E+02
 0.98469273811E+01 0.81862209663E+01 0.67758220340E+01 0.56192792600E+01 0.46948987428E+01
 0.39729882561E+01 0.34234878856E+01 0.30196139086E+01 0.27387795582E+01 0.25627530571E+01
 0.24782937404E+01 0.24260703064E+01 0.24662657581E+01 0.25907767759E+01 0.28110802760E+01
 0.31449196526E+01 0.36152642611E+01 0.42499796209E+01 0.50815696322E+01 0.61454169207E+01
 0.74730795179E+01 0.90685852531E+01 0.10893723635E+02 0.12867043634E+02 0.14871819967E+02
 0.16772386084E+02 0.18431196949E+02 0.19722384300E+02 0.20543108750E+02 0.20824911082E+02
 0.20543458129E+02 0.19722550849E+02 0.18430472043E+02 0.16770687699E+02 0.14870173102E+02
 0.12866789109E+02 0.10895107190E+02 0.90704920238E+01 0.74742597330E+01 0.61456005624E+01
 0.50812823598E+01 0.42497244693E+01 0.36151788171E+01 0.31449439574E+01 0.28111212688E+01
 0.25907682185E+01 0.24662265023E+01 0.24662693538E+01 0.24662915561E+01 0.25386555834E+01
 0.26908413491E+01 0.29368455009E+01 0.32961514679E+01 0.37933421724E+01 0.44575724376E+01
 0.53206593155E+01 0.64090776603E+01 0.77230451135E+01 0.92278134037E+01 0.10851257015E+02
 0.12492076580E+02 0.14037806162E+02 0.15385295567E+02 0.16454733298E+02 0.17192953080E+02
 0.17569076197E+02 0.17568903217E+02 0.17192184181E+02 0.16453222413E+02 0.15383892572E+02
 0.14038004470E+02 0.12494443775E+02 0.10854498748E+02 0.92298352493E+01 0.77229301367E+01
 0.64077105086E+01 0.53194765154E+01 0.44571696444E+01 0.37934161555E+01 0.32962831997E+01
 0.29369067862E+01 0.26908464326E+01 0.25386237314E+01 0.25907815303E+01 0.25585537678E+01
 0.25907569164E+01 0.26908225913E+01 0.28686879738E+01 0.31404646662E+01 0.35284239363E+01
 0.40604706459E+01 0.47676870555E+01 0.56737994757E+01 0.67759705952E+01 0.80354563873E+01
 0.93767347171E+01 0.10700064671E+02 0.11903703486E+02 0.12907774433E+02 0.13670192414E+02
 0.14187565318E+02 0.14481105585E+02 0.14575386043E+02 0.14480739678E+02 0.14186914800E+02
 0.13669857741E+02 0.12908640848E+02 0.11905857075E+02 0.10702260496E+02 0.93774086855E+01
 0.80342538086E+01 0.67740164446E+01 0.56724955112E+01 0.47675017992E+01 0.40609048644E+01
 0.35288157410E+01 0.31405811100E+01 0.28686641459E+01 0.26908165801E+01 0.28110924567E+01
 0.27510914571E+01 0.27510734230E+01 0.28110690142E+01 0.29368665927E+01 0.31406365713E+01
 0.34417221158E+01 0.38666235123E+01 0.44468141205E+01 0.52076097496E+01 0.61488217641E+01
 0.72299224267E+01 0.83666495691E+01 0.94476060046E+01 0.10364608531E+02 0.11044156634E+02
 0.11467875923E+02 0.11674231638E+02 0.11739915465E+02 0.11746743765E+02 0.11746755233E+02
 0.11740081764E+02 0.11674879869E+02 0.11469118326E+02 0.11045309955E+02 0.10364434117E+02
 0.94456130053E+01 0.83639508010E+01 0.72283116571E+01 0.61490485786E+01 0.52088996429E+01
 0.44479580747E+01 0.38670950357E+01 0.34417261190E+01 0.31405372181E+01 0.29368330409E+01
 0.31449439557E+01 0.30593571211E+01 0.30315694339E+01 0.30593072524E+01 0.31449217696E+01
 0.32963356495E+01 0.35290912939E+01 0.38674408793E+01 0.43425612946E+01 0.49817245800E+01
 0.57903396909E+01 0.67331412159E+01 0.77238587331E+01 0.86386489092E+01 0.93508732057E+01
 0.97730176514E+01 0.98882387270E+01 0.97590260731E+01 0.95088939957E+01 0.92817155167E+01
 0.91916612503E+01 0.92820615405E+01 0.95095244432E+01 0.97597131910E+01 0.98883971109E+01
 0.97719328049E+01 0.93485908446E+01 0.86364836790E+01 0.77234061315E+01 0.67346551260E+01
 0.57925012758E+01 0.49830859013E+01 0.43427991296E+01 0.38671332434E+01 0.35288024310E+01
 0.32962309525E+01 0.36151995443E+01 0.35053445409E+01 0.34525045643E+01 0.34524522373E+01
 0.35052471490E+01 0.36151131909E+01 0.37933566479E+01 0.40612363116E+01 0.44489588561E+01
 0.49842261846E+01 0.56761353645E+01 0.64978668749E+01 0.73703545368E+01 0.81672865382E+01
 0.87457985489E+01 0.89937636474E+01 0.88745027820E+01 0.84492971792E+01 0.78669596239E+01
 0.73222149141E+01 0.69957405138E+01 0.69958320688E+01 0.73224356226E+01 0.78670698189E+01
 0.84488716126E+01 0.88733578572E+01 0.89925416541E+01 0.87457760856E+01 0.81691147411E+01
 0.73730620296E+01 0.64996171901E+01 0.56760643907E+01 0.49831160241E+01 0.44480539417E+01
 0.40609568413E+01 0.37933940337E+01 0.42496661043E+01 0.41172679118E+01 0.40427547093E+01
 0.40185095081E+01 0.40427029091E+01 0.41171449923E+01 0.42493374510E+01 0.44566805014E+01
 0.47676344688E+01 0.52101928678E+01 0.57944628219E+01 0.65008434914E+01 0.72609827752E+01
 0.79554469590E+01 0.84364672083E+01 0.85723765189E+01 0.82985922598E+01 0.76538173395E+01
 0.67842029740E+01 0.59103852463E+01 0.52663381693E+01 0.50295696495E+01 0.52661846541E+01
 0.59100782904E+01 0.67837638161E+01 0.76534078174E+01 0.82986605217E+01 0.85734758591E+01
 0.84385877874E+01 0.79575355775E+01 0.72615927322E+01 0.64995652148E+01 0.57924429090E+01
 0.52089435332E+01 0.47675734760E+01 0.44571397935E+01 0.50811608999E+01 0.49295205581E+01
 0.48393382183E+01 0.47967646597E+01 0.47967179657E+01 0.48393378776E+01 0.49295869169E+01
 0.50808301993E+01 0.53184388571E+01 0.56713776139E+01 0.61488711853E+01 0.67360254430E+01
 0.73753429849E+01 0.79592178342E+01 0.83455538859E+01 0.83953871008E+01 0.80219150948E+01
 0.72334131319E+01 0.61516278442E+01 0.49941284897E+01 0.40219446847E+01 0.34676300540E+01
 0.34675763743E+01 0.40216715314E+01 0.49936467466E+01 0.61514532067E+01 0.72341386244E+01
 0.80233991871E+01 0.83966303966E+01 0.83454765298E+01 0.79575843349E+01 0.73730588122E+01
 0.67345242705E+01 0.61489559290E+01 0.56725442670E+01 0.53194954198E+01 0.61456005615E+01
 0.59812195787E+01 0.58851820019E+01 0.58348012683E+01 0.58188882951E+01 0.58346947658E+01
 0.58854766221E+01 0.59817797029E+01 0.61454182534E+01 0.64063460855E+01 0.67718910924E+01
 0.72268854942E+01 0.77238583327E+01 0.81711198418E+01 0.84406512488E+01 0.83975467628E+01
 0.79436531125E+01 0.70611333906E+01 0.58391977243E+01 0.44706983317E+01 0.32143836832E+01
 0.23310706565E+01 0.20132032355E+01 0.23312430668E+01 0.32143394620E+01 0.44705098041E+01
 0.58394337297E+01 0.70618297520E+01 0.79439178030E+01 0.83965491307E+01 0.84386461534E+01
 0.81692967396E+01 0.77234061323E+01 0.72281377435E+01 0.67740031338E+01 0.64078703828E+01
 0.74745046353E+01 0.73112562645E+01 0.72242938696E+01 0.71825518560E+01 0.71658597810E+01