   4   4   0   0
  0.1173571E+02  0.3216290E-09  0.3216290E-09  0.5239963E-09  0.5000000E-15
  1.000000000000000E-004
  CAR 
 Band structure                          
     14.44995939    -13.76392543  301      3.64639266      1.00000000
    -13.764  0.0000E+00  0.0000E+00
    -13.670  0.0000E+00  0.0000E+00
    -13.576  0.0000E+00  0.0000E+00
    -13.482  0.0000E+00  0.0000E+00
    -13.388  0.0000E+00  0.0000E+00
    -13.294  0.0000E+00  0.0000E+00
    -13.200  0.0000E+00  0.0000E+00
    -13.106  0.0000E+00  0.0000E+00
    -13.012  0.0000E+00  0.0000E+00
    -12.918  0.0000E+00  0.0000E+00
    -12.823  0.0000E+00  0.0000E+00
    -12.729  0.0000E+00  0.0000E+00
    -12.635  0.0000E+00  0.0000E+00
    -12.541  0.0000E+00  0.0000E+00
    -12.447  0.1121E+01  0.1054E+00
    -12.353  0.2295E-05  0.1250E+00
    -12.259  0.7974E+01  0.8750E+00
    -12.165  0.0000E+00  0.8750E+00
    -12.071  0.0000E+00  0.8750E+00
    -11.977  0.6219E+01  0.1460E+01
    -11.883  0.1941E-05  0.1625E+01
    -11.789  0.3987E+01  0.2000E+01
    -11.695  0.0000E+00  0.2000E+01
    -11.601  0.0000E+00  0.2000E+01
    -11.507  0.0000E+00  0.2000E+01
    -11.413  0.0000E+00  0.2000E+01
    -11.319  0.0000E+00  0.2000E+01
    -11.225  0.0000E+00  0.2000E+01
    -11.131  0.0000E+00  0.2000E+01
    -11.037  0.0000E+00  0.2000E+01
    -10.943  0.0000E+00  0.2000E+01
    -10.848  0.0000E+00  0.2000E+01
    -10.754  0.0000E+00  0.2000E+01
    -10.660  0.0000E+00  0.2000E+01
    -10.566  0.0000E+00  0.2000E+01
    -10.472  0.0000E+00  0.2000E+01
    -10.378  0.0000E+00  0.2000E+01
    -10.284  0.0000E+00  0.2000E+01
    -10.190  0.0000E+00  0.2000E+01
    -10.096  0.3206E+00  0.2030E+01
    -10.002  0.1315E+01  0.2155E+01
     -9.908  0.4577E+01  0.2743E+01
     -9.814  0.8287E-04  0.2875E+01
     -9.720  0.4820E+01  0.3328E+01
     -9.626  0.4607E+01  0.3872E+01
     -9.532  0.9750E+00  0.4000E+01
     -9.438  0.0000E+00  0.4000E+01
     -9.344  0.0000E+00  0.4000E+01
     -9.250  0.0000E+00  0.4000E+01
     -9.156  0.0000E+00  0.4000E+01
     -9.062  0.0000E+00  0.4000E+01
     -8.968  0.0000E+00  0.4000E+01
     -8.874  0.0000E+00  0.4000E+01
     -8.779  0.0000E+00  0.4000E+01
     -8.685  0.0000E+00  0.4000E+01
     -8.591  0.0000E+00  0.4000E+01
     -8.497  0.0000E+00  0.4000E+01
     -8.403  0.0000E+00  0.4000E+01
     -8.309  0.0000E+00  0.4000E+01
     -8.215  0.0000E+00  0.4000E+01
     -8.121  0.0000E+00  0.4000E+01
     -8.027  0.0000E+00  0.4000E+01
     -7.933  0.0000E+00  0.4000E+01
     -7.839  0.0000E+00  0.4000E+01
     -7.745  0.0000E+00  0.4000E+01
     -7.651  0.0000E+00  0.4000E+01
     -7.557  0.0000E+00  0.4000E+01
     -7.463  0.0000E+00  0.4000E+01
     -7.369  0.0000E+00  0.4000E+01
     -7.275  0.0000E+00  0.4000E+01
     -7.181  0.0000E+00  0.4000E+01
     -7.087  0.0000E+00  0.4000E+01
     -6.993  0.0000E+00  0.4000E+01
     -6.899  0.0000E+00  0.4000E+01
     -6.805  0.0000E+00  0.4000E+01
     -6.710  0.0000E+00  0.4000E+01
     -6.616  0.0000E+00  0.4000E+01
     -6.522  0.0000E+00  0.4000E+01
     -6.428  0.0000E+00  0.4000E+01
     -6.334  0.0000E+00  0.4000E+01
     -6.240  0.0000E+00  0.4000E+01
     -6.146  0.0000E+00  0.4000E+01
     -6.052  0.0000E+00  0.4000E+01
     -5.958  0.0000E+00  0.4000E+01
     -5.864  0.0000E+00  0.4000E+01
     -5.770  0.0000E+00  0.4000E+01
     -5.676  0.0000E+00  0.4000E+01
     -5.582  0.0000E+00  0.4000E+01
     -5.488  0.0000E+00  0.4000E+01
     -5.394  0.0000E+00  0.4000E+01
     -5.300  0.0000E+00  0.4000E+01
     -5.206  0.0000E+00  0.4000E+01
     -5.112  0.0000E+00  0.4000E+01
     -5.018  0.0000E+00  0.4000E+01
     -4.924  0.0000E+00  0.4000E+01
     -4.830  0.0000E+00  0.4000E+01
     -4.735  0.0000E+00  0.4000E+01
     -4.641  0.0000E+00  0.4000E+01
     -4.547  0.0000E+00  0.4000E+01
     -4.453  0.0000E+00  0.4000E+01
     -4.359  0.0000E+00  0.4000E+01
     -4.265  0.0000E+00  0.4000E+01
     -4.171  0.0000E+00  0.4000E+01
     -4.077  0.0000E+00  0.4000E+01
     -3.983  0.2047E-14  0.4000E+01
     -3.889  0.6147E+00  0.4058E+01
     -3.795  0.2256E-04  0.4094E+01
     -3.701  0.6311E+01  0.4687E+01
     -3.607  0.1291E+01  0.4809E+01
     -3.513  0.0000E+00  0.4875E+01
     -3.419  0.2883E+01  0.5146E+01
     -3.325  0.1181E+00  0.5449E+01
     -3.231  0.2990E+01  0.5906E+01
     -3.137  0.9968E+00  0.6000E+01
     -3.043  0.0000E+00  0.6000E+01
     -2.949  0.0000E+00  0.6000E+01
     -2.855  0.0000E+00  0.6000E+01
     -2.761  0.0000E+00  0.6000E+01
     -2.666  0.0000E+00  0.6000E+01
     -2.572  0.0000E+00  0.6000E+01
     -2.478  0.0000E+00  0.6000E+01
     -2.384  0.0000E+00  0.6000E+01
     -2.290  0.0000E+00  0.6000E+01
     -2.196  0.0000E+00  0.6000E+01
     -2.102  0.0000E+00  0.6000E+01
     -2.008  0.0000E+00  0.6000E+01
     -1.914  0.0000E+00  0.6000E+01
     -1.820  0.0000E+00  0.6000E+01
     -1.726  0.0000E+00  0.6000E+01
     -1.632  0.0000E+00  0.6000E+01
     -1.538  0.0000E+00  0.6000E+01
     -1.444  0.0000E+00  0.6000E+01
     -1.350  0.0000E+00  0.6000E+01
     -1.256  0.0000E+00  0.6000E+01
     -1.162  0.0000E+00  0.6000E+01
     -1.068  0.0000E+00  0.6000E+01
     -0.974  0.0000E+00  0.6000E+01
     -0.880  0.0000E+00  0.6000E+01
     -0.786  0.0000E+00  0.6000E+01
     -0.691  0.0000E+00  0.6000E+01
     -0.597  0.0000E+00  0.6000E+01
     -0.503  0.0000E+00  0.6000E+01
     -0.409  0.0000E+00  0.6000E+01
     -0.315  0.0000E+00  0.6000E+01
     -0.221  0.0000E+00  0.6000E+01
     -0.127  0.4905E-04  0.6000E+01
     -0.033  0.3977E+01  0.6374E+01
      0.061  0.0000E+00  0.6375E+01
      0.155  0.0000E+00  0.6375E+01
      0.249  0.0000E+00  0.6375E+01
      0.343  0.4739E+01  0.6821E+01
      0.437  0.1994E+01  0.7125E+01
      0.531  0.6386E-02  0.7126E+01
      0.625  0.3955E+01  0.7498E+01
      0.719  0.0000E+00  0.7500E+01
      0.813  0.0000E+00  0.7500E+01
      0.907  0.2158E-13  0.7500E+01
      1.001  0.2275E+01  0.7714E+01
      1.095  0.1994E+01  0.8250E+01
      1.189  0.0000E+00  0.8250E+01
      1.283  0.0000E+00  0.8250E+01
      1.378  0.0000E+00  0.8250E+01
      1.472  0.5120E-07  0.8250E+01
      1.566  0.7974E+01  0.9000E+01
      1.660  0.3987E+01  0.9375E+01
      1.754  0.0000E+00  0.9375E+01
      1.848  0.2321E+01  0.9593E+01
      1.942  0.1979E+01  0.1012E+02
      2.036  0.2007E+01  0.1031E+02
      2.130  0.1969E+01  0.1088E+02
      2.224  0.0000E+00  0.1088E+02
      2.318  0.1064E-09  0.1088E+02
      2.412  0.2049E+01  0.1107E+02
      2.506  0.7832E+01  0.1186E+02
      2.600  0.0000E+00  0.1188E+02
      2.694  0.0000E+00  0.1188E+02
      2.788  0.0000E+00  0.1188E+02
      2.882  0.4216E+00  0.1191E+02
      2.976  0.6978E+01  0.1262E+02
      3.070  0.9844E+01  0.1355E+02
      3.164  0.5958E+01  0.1416E+02
      3.258  0.1261E+01  0.1427E+02
      3.352  0.6748E+01  0.1498E+02
      3.447  0.6259E+01  0.1574E+02
      3.541  0.2620E+01  0.1600E+02
      3.635  0.0000E+00  0.1600E+02
      3.729  0.0000E+00  0.1600E+02
      3.823  0.0000E+00  0.1600E+02
      3.917  0.0000E+00  0.1600E+02
      4.011  0.0000E+00  0.1600E+02
      4.105  0.0000E+00  0.1600E+02
      4.199  0.0000E+00  0.1600E+02
      4.293  0.0000E+00  0.1600E+02
      4.387  0.0000E+00  0.1600E+02
      4.481  0.0000E+00  0.1600E+02
      4.575  0.0000E+00  0.1600E+02
      4.669  0.0000E+00  0.1600E+02
      4.763  0.7434E-13  0.1600E+02
      4.857  0.3323E+00  0.1603E+02
      4.951  0.6646E+00  0.1609E+02
      5.045  0.0000E+00  0.1609E+02
      5.139  0.5911E-05  0.1609E+02
      5.233  0.3323E+00  0.1612E+02
      5.327  0.0000E+00  0.1612E+02
      5.422  0.0000E+00  0.1612E+02
      5.516  0.0000E+00  0.1612E+02
      5.610  0.0000E+00  0.1612E+02
      5.704  0.0000E+00  0.1612E+02
      5.798  0.1139E-02  0.1613E+02
      5.892  0.5980E+01  0.1669E+02
      5.986  0.1472E+01  0.1683E+02
      6.080  0.0000E+00  0.1688E+02
      6.174  0.0000E+00  0.1688E+02
      6.268  0.0000E+00  0.1688E+02
      6.362  0.0000E+00  0.1688E+02
      6.456  0.0000E+00  0.1688E+02
      6.550  0.0000E+00  0.1688E+02
      6.644  0.0000E+00  0.1688E+02
      6.738  0.2283E-01  0.1688E+02
      6.832  0.7837E+01  0.1761E+02
      6.926  0.4138E-01  0.1763E+02
      7.020  0.9864E+00  0.1775E+02
      7.114  0.3321E+01  0.1806E+02
      7.208  0.0000E+00  0.1812E+02
      7.302  0.0000E+00  0.1812E+02
      7.396  0.0000E+00  0.1812E+02
      7.491  0.0000E+00  0.1812E+02
      7.585  0.0000E+00  0.1812E+02
      7.679  0.9040E-06  0.1813E+02
      7.773  0.7975E+01  0.1887E+02
      7.867  0.0000E+00  0.1888E+02
      7.961  0.0000E+00  0.1888E+02
      8.055  0.0000E+00  0.1888E+02
      8.149  0.0000E+00  0.1888E+02
      8.243  0.0000E+00  0.1888E+02
      8.337  0.0000E+00  0.1888E+02
      8.431  0.0000E+00  0.1888E+02
      8.525  0.0000E+00  0.1888E+02
      8.619  0.4129E-01  0.1888E+02
      8.713  0.7934E+01  0.1962E+02
      8.807  0.0000E+00  0.1962E+02
      8.901  0.8633E-03  0.1963E+02
      8.995  0.3987E+01  0.2000E+02
      9.089  0.0000E+00  0.2000E+02
      9.183  0.0000E+00  0.2000E+02
      9.277  0.0000E+00  0.2000E+02
      9.371  0.0000E+00  0.2000E+02
      9.466  0.0000E+00  0.2000E+02
      9.560  0.0000E+00  0.2000E+02
      9.654  0.0000E+00  0.2000E+02
      9.748  0.0000E+00  0.2000E+02
      9.842  0.0000E+00  0.2000E+02
      9.936  0.0000E+00  0.2000E+02
     10.030  0.0000E+00  0.2000E+02
     10.124  0.0000E+00  0.2000E+02
     10.218  0.0000E+00  0.2000E+02
     10.312  0.0000E+00  0.2000E+02
     10.406  0.0000E+00  0.2000E+02
     10.500  0.7087E-03  0.2000E+02
     10.594  0.3987E+01  0.2038E+02
     10.688  0.0000E+00  0.2038E+02
     10.782  0.7851E+01  0.2111E+02
     10.876  0.0000E+00  0.2112E+02
     10.970  0.1044E+01  0.2122E+02
     11.064  0.9968E+00  0.2150E+02
     11.158  0.1365E+01  0.2163E+02
     11.252  0.5348E+01  0.2219E+02
     11.346  0.0000E+00  0.2225E+02
     11.440  0.0000E+00  0.2225E+02
     11.535  0.3469E-04  0.2225E+02
     11.629  0.7975E+01  0.2300E+02
     11.723  0.0000E+00  0.2300E+02
     11.817  0.1990E+01  0.2319E+02
     11.911  0.5968E+01  0.2375E+02
     12.005  0.0000E+00  0.2375E+02
     12.099  0.1110E-12  0.2375E+02
     12.193  0.3598E+00  0.2378E+02
     12.287  0.3323E+00  0.2388E+02
     12.381  0.5983E-01  0.2388E+02
     12.475  0.0000E+00  0.2391E+02
     12.569  0.0000E+00  0.2391E+02
     12.663  0.0000E+00  0.2391E+02
     12.757  0.0000E+00  0.2391E+02
     12.851  0.0000E+00  0.2391E+02
     12.945  0.1320E-11  0.2391E+02
     13.039  0.3323E+00  0.2394E+02
     13.133  0.4393E-06  0.2394E+02
     13.227  0.6646E+00  0.2400E+02
     13.321  0.0000E+00  0.2400E+02
     13.415  0.0000E+00  0.2400E+02
     13.509  0.0000E+00  0.2400E+02
     13.604  0.0000E+00  0.2400E+02
     13.698  0.0000E+00  0.2400E+02
     13.792  0.0000E+00  0.2400E+02
     13.886  0.0000E+00  0.2400E+02
     13.980  0.0000E+00  0.2400E+02
     14.074  0.0000E+00  0.2400E+02
     14.168  0.0000E+00  0.2400E+02
     14.262  0.0000E+00  0.2400E+02
     14.356  0.0000E+00  0.2400E+02
     14.450  0.0000E+00  0.2400E+02
