    4    4    1    1
  0.1173571E+02  0.3216290E-09  0.3216290E-09  0.5239962E-09  0.5000000E-15
  1.000000000000000E-004
  CAR 
 Band structure                          
     16     72     12
 
  0.0000000E+00  0.0000000E+00  0.0000000E+00  0.1562500E-01
    1      -12.481476   1.000000
    2      -10.014589   1.000000
    3       -3.928576   1.000000
    4        2.422805   1.000000
    5        2.422824   1.000000
    6        3.439658   1.000000
    7        3.528799   1.000000
    8        3.528805   1.000000
    9        4.814390   0.000000
   10        6.935603   0.000000
   11       12.224720   0.000000
   12       12.387412   0.000000
 
  0.7772900E-01  0.4487700E-01  0.0000000E+00  0.9375000E-01
    1      -12.319819   1.000000
    2       -9.904353   1.000000
    3       -3.762925   1.000000
    4        1.510088   1.000000
    5        2.051690   1.000000
    6        2.495371   1.000000
    7        3.315981   1.000000
    8        3.394830   1.000000
    9        5.820702   0.000000
   10        7.713410   0.000000
   11       11.564862   0.000000
   12       11.893196   0.000000
 
  0.1554590E+00  0.8975400E-01  0.0000000E+00  0.4687500E-01
    1      -11.850349   1.000000
    2       -9.611636   1.000000
    3       -3.299707   1.000000
    4       -0.099676   1.000000
    5        0.611411   1.000000
    6        1.629660   1.000000
    7        2.925748   1.000000
    8        2.947123   1.000000
    9        7.082762   0.000000
   10        8.923614   0.000000
   11       10.531308   0.000000
   12       11.001894   0.000000
 
  0.7772900E-01  0.1346310E+00  0.0000000E+00  0.9375000E-01
    1      -12.004090   1.000000
    2       -9.702400   1.000000
    3       -3.447370   1.000000
    4        0.328539   1.000000
    5        1.027733   1.000000
    6        1.864951   1.000000
    7        3.058511   1.000000
    8        3.096059   1.000000
    9        6.754252   0.000000
   10        8.634267   0.000000
   11       10.764564   0.000000
   12       11.249029   0.000000
 
  0.0000000E+00  0.0000000E+00  0.4771000E-01  0.3125000E-01
    1      -12.472350   1.000000
    2      -10.038793   1.000000
    3       -3.887727   1.000000
    4        2.428549   1.000000
    5        2.428569   1.000000
    6        3.320110   1.000000
    7        3.522165   1.000000
    8        3.522170   1.000000
    9        4.920552   0.000000
   10        6.941471   0.000000
   11       12.205114   0.000000
   12       13.167510   0.000000
 
  0.7772900E-01  0.4487700E-01  0.4771000E-01  0.1875000E+00
    1      -12.310804   1.000000
    2       -9.927560   1.000000
    3       -3.724029   1.000000
    4        1.517738   1.000000
    5        2.048608   1.000000
    6        2.457793   1.000000
    7        3.300317   1.000000
    8        3.387087   1.000000
    9        5.862701   0.000000
   10        7.718396   0.000000
   11       11.566565   0.000000
   12       11.867525   0.000000
 
  0.1554590E+00  0.8975400E-01  0.4771000E-01  0.9375000E-01
    1      -11.841724   1.000000
    2       -9.632002   1.000000
    3       -3.269016   1.000000
    4       -0.086968   1.000000
    5        0.595967   1.000000
    6        1.623005   1.000000
    7        2.915844   1.000000
    8        2.943006   1.000000
    9        7.090968   0.000000
   10        8.928870   0.000000
   11       10.530748   0.000000
   12       10.984264   0.000000
 
  0.7772900E-01  0.1346310E+00  0.4771000E-01  0.1875000E+00
    1      -11.995306   1.000000
    2       -9.723757   1.000000
    3       -3.413449   1.000000
    4        0.339336   1.000000
    5        1.011756   1.000000
    6        1.856395   1.000000
    7        3.048645   1.000000
    8        3.088288   1.000000
    9        6.770842   0.000000
   10        8.639038   0.000000
   11       10.766859   0.000000
   12       11.223451   0.000000
 
  0.0000000E+00  0.0000000E+00  0.9542100E-01  0.1562500E-01
    1      -12.444983   1.000000
    2      -10.108915   1.000000
    3       -3.767540   1.000000
    4        2.445743   1.000000
    5        2.445762   1.000000
    6        3.031501   1.000000
    7        3.502434   1.000000
    8        3.502439   1.000000
    9        5.168613   0.000000
   10        6.958864   0.000000
   11       12.149614   0.000000
   12       12.993582   0.000000
 
  0.7772900E-01  0.4487700E-01  0.9542100E-01  0.9375000E-01
    1      -12.283774   1.000000
    2       -9.995214   1.000000
    3       -3.609609   1.000000
    4        1.540424   1.000000
    5        2.025765   1.000000
    6        2.363647   1.000000
    7        3.256054   1.000000
    8        3.364042   1.000000
    9        5.981280   0.000000
   10        7.732931   0.000000
   11       11.566736   0.000000
   12       11.795937   0.000000
 
  0.1554590E+00  0.8975400E-01  0.9542100E-01  0.4687500E-01
    1      -11.815899   1.000000
    2       -9.691574   1.000000
    3       -3.178902   1.000000
    4       -0.049393   1.000000
    5        0.548709   1.000000
    6        1.608190   1.000000
    7        2.883641   1.000000
    8        2.929050   1.000000
    9        7.117406   0.000000
   10        8.943922   0.000000
   11       10.522628   0.000000
   12       10.939565   0.000000
 
  0.7772900E-01  0.1346310E+00  0.9542100E-01  0.9375000E-01
    1      -11.969050   1.000000
    2       -9.786156   1.000000
    3       -3.313742   1.000000
    4        0.371318   1.000000
    5        0.961321   1.000000
    6        1.837080   1.000000
    7        3.016669   1.000000
    8        3.064189   1.000000
    9        6.821090   0.000000
   10        8.652795   0.000000
   11       10.768335   0.000000
   12       11.154942   0.000000
 
  0.0000000E+00  0.0000000E+00  0.5000000E+00  0.0000000E+00
    1      -11.528891   1.000000
    2      -11.528889   1.000000
    3       -0.724498   1.000000
    4       -0.724495   1.000000
    5        2.955891   1.000000
    6        2.955894   1.000000
    7        2.955899   1.000000
    8        2.955904   1.000000
    9        7.133642   0.000000
   10        7.133651   0.000000
   11       11.234271   0.000000
   12       11.234275   0.000000
 
  0.0000000E+00  0.3125000E-01  0.5000000E+00  0.0000000E+00
    1      -11.516221   1.000000
    2      -11.516219   1.000000
    3       -0.725454   1.000000
    4       -0.725450   1.000000
    5        2.885203   1.000000
    6        2.885206   1.000000
    7        2.938056   1.000000
    8        2.938060   1.000000
    9        7.196887   0.000000
   10        7.196896   0.000000
   11       11.181678   0.000000
   12       11.181682   0.000000
 
  0.0000000E+00  0.6250000E-01  0.5000000E+00  0.0000000E+00
    1      -11.478426   1.000000
    2      -11.478424   1.000000
    3       -0.730232   1.000000
    4       -0.730229   1.000000
    5        2.689960   1.000000
    6        2.689962   1.000000
    7        2.885689   1.000000
    8        2.885692   1.000000
    9        7.368777   0.000000
   10        7.368785   0.000000
   11       11.037392   0.000000
   12       11.037396   0.000000
 
  0.0000000E+00  0.9375000E-01  0.5000000E+00  0.0000000E+00
    1      -11.415923   1.000000
    2      -11.415921   1.000000
    3       -0.744898   1.000000
    4       -0.744894   1.000000
    5        2.410272   1.000000
    6        2.410274   1.000000
    7        2.802345   1.000000
    8        2.802348   1.000000
    9        7.606071   0.000000
   10        7.606078   0.000000
   11       10.836289   0.000000
   12       10.836293   0.000000
 
  0.0000000E+00  0.1250000E+00  0.5000000E+00  0.0000000E+00
    1      -11.329516   1.000000
    2      -11.329514   1.000000
    3       -0.780672   1.000000
    4       -0.780669   1.000000
    5        2.092237   1.000000
    6        2.092238   1.000000
    7        2.693276   1.000000
    8        2.693280   1.000000
    9        7.855624   0.000000
   10        7.855631   0.000000
   11       10.624540   0.000000
   12       10.624545   0.000000
 
  0.0000000E+00  0.1562500E+00  0.5000000E+00  0.0000000E+00
    1      -11.220295   1.000000
    2      -11.220293   1.000000
    3       -0.854642   1.000000
    4       -0.854639   1.000000
    5        1.780353   1.000000
    6        1.780354   1.000000
    7        2.564824   1.000000
    8        2.564827   1.000000
    9        8.060924   0.000000
   10        8.060930   0.000000
   11       10.453194   0.000000
   12       10.453199   0.000000
 
  0.0000000E+00  0.1875000E+00  0.5000000E+00  0.0000000E+00
    1      -11.090039   1.000000
    2      -11.090036   1.000000
    3       -0.987549   1.000000
    4       -0.987545   1.000000
    5        1.514651   1.000000
    6        1.514652   1.000000
    7        2.423629   1.000000
    8        2.423632   1.000000
    9        8.169060   0.000000
   10        8.169065   0.000000
   11       10.367563   0.000000
   12       10.367568   0.000000
 
  0.0000000E+00  0.2187500E+00  0.5000000E+00  0.0000000E+00
    1      -10.940973   1.000000
    2      -10.940971   1.000000
    3       -1.194823   1.000000
    4       -1.194819   1.000000
    5        1.324341   1.000000
    6        1.324343   1.000000
    7        2.276284   1.000000
    8        2.276287   1.000000
    9        8.156178   0.000000
   10        8.156184   0.000000
   11       10.381258   0.000000
   12       10.381263   0.000000
 
  0.0000000E+00  0.2500000E+00  0.5000000E+00  0.0000000E+00
    1      -10.776134   1.000000
    2      -10.776131   1.000000
    3       -1.474875   1.000000
    4       -1.474871   1.000000
    5        1.217925   1.000000
    6        1.217927   1.000000
    7        2.128900   1.000000
    8        2.128903   1.000000
    9        8.044758   0.000000
   10        8.044764   0.000000
   11       10.458744   0.000000
   12       10.458749   0.000000
 
  0.0000000E+00  0.2812500E+00  0.5000000E+00  0.0000000E+00
    1      -10.599542   1.000000
    2      -10.599539   1.000000
    3       -1.807771   1.000000
    4       -1.807767   1.000000
    5        1.183500   1.000000
    6        1.183503   1.000000
    7        1.986916   1.000000
    8        1.986919   1.000000
    9        7.878875   0.000000
   10        7.878880   0.000000
   11       10.544870   0.000000
   12       10.544875   0.000000
 
  0.0000000E+00  0.3125000E+00  0.5000000E+00  0.0000000E+00
    1      -10.416551   1.000000
    2      -10.416548   1.000000
    3       -2.165592   1.000000
    4       -2.165587   1.000000
    5        1.199968   1.000000
    6        1.199971   1.000000
    7        1.855008   1.000000
    8        1.855011   1.000000
    9        7.694911   0.000000
   10        7.694916   0.000000
   11       10.600500   0.000000
   12       10.600504   0.000000
 
  0.0000000E+00  0.3437500E+00  0.5000000E+00  0.0000000E+00
    1      -10.234045   1.000000
    2      -10.234041   1.000000
    3       -2.521310   1.000000
    4       -2.521305   1.000000
    5        1.246881   1.000000
    6        1.246885   1.000000
    7        1.737125   1.000000
    8        1.737127   1.000000
    9        7.515800   0.000000
   10        7.515806   0.000000
   11       10.613076   0.000000
   12       10.613080   0.000000
 
  0.0000000E+00  0.3750000E+00  0.5000000E+00  0.0000000E+00
    1      -10.060929   1.000000
    2      -10.060925   1.000000
    3       -2.851414   1.000000
    4       -2.851408   1.000000
    5        1.307483   1.000000
    6        1.307487   1.000000
    7        1.636471   1.000000
    8        1.636473   1.000000
    9        7.355420   0.000000
   10        7.355426   0.000000
   11       10.590028   0.000000
   12       10.590032   0.000000
 
  0.0000000E+00  0.4062500E+00  0.5000000E+00  0.0000000E+00
    1       -9.907548   1.000000
    2       -9.907543   1.000000
    3       -3.135199   1.000000
    4       -3.135192   1.000000
    5        1.368625   1.000000
    6        1.368629   1.000000
    7        1.555658   1.000000
    8        1.555661   1.000000
    9        7.222708   0.000000
   10        7.222713   0.000000
   11       10.548291   0.000000
   12       10.548294   0.000000
 
  0.0000000E+00  0.4375000E+00  0.5000000E+00  0.0000000E+00
    1       -9.785801   1.000000
    2       -9.785796   1.000000
    3       -3.354248   1.000000
    4       -3.354241   1.000000
    5        1.420008   1.000000
    6        1.420012   1.000000
    7        1.496572   1.000000
    8        1.496574   1.000000
    9        7.123675   0.000000
   10        7.123680   0.000000
   11       10.504841   0.000000
   12       10.504844   0.000000
 
  0.0000000E+00  0.4687500E+00  0.5000000E+00  0.0000000E+00
    1       -9.706985   1.000000
    2       -9.706980   1.000000
    3       -3.492985   1.000000
    4       -3.492979   1.000000
    5        1.454020   1.000000
    6        1.454023   1.000000
    7        1.460595   1.000000
    8        1.460597   1.000000
    9        7.062531   0.000000
   10        7.062536   0.000000
   11       10.473253   0.000000
   12       10.473255   0.000000
 
  0.0000000E+00  0.5000000E+00  0.5000000E+00  0.0000000E+00
    1       -9.679624   1.000000
    2       -9.679619   1.000000
    3       -3.540542   1.000000
    4       -3.540535   1.000000
    5        1.448511   1.000000
    6        1.448513   1.000000
    7        1.465908   1.000000
    8        1.465912   1.000000
    9        7.041855   0.000000
   10        7.041860   0.000000
   11       10.461825   0.000000
   12       10.461827   0.000000
 
  0.0000000E+00  0.5000000E+00  0.4375000E+00  0.0000000E+00
    1       -9.767993   1.000000
    2       -9.591710   1.000000
    3       -3.637267   1.000000
    4       -3.399915   1.000000
    5        1.140080   1.000000
    6        1.277139   1.000000
    7        1.626992   1.000000
    8        1.701697   1.000000
    9        6.839974   0.000000
   10        7.285397   0.000000
   11       10.322473   0.000000
   12       10.650577   0.000000
 
  0.0000000E+00  0.5000000E+00  0.3750000E+00  0.0000000E+00
    1       -9.853152   1.000000
    2       -9.508313   1.000000
    3       -3.686981   1.000000
    4       -3.221141   1.000000
    5        0.760131   1.000000
    6        1.118393   1.000000
    7        1.806090   1.000000
    8        1.815020   1.000000
    9        6.744334   0.000000
   10        7.497424   0.000000
   11       10.307376   0.000000
   12       10.773182   0.000000
 
  0.0000000E+00  0.5000000E+00  0.3125000E+00  0.0000000E+00
    1       -9.931341   1.000000
    2       -9.432821   1.000000
    3       -3.689698   1.000000
    4       -3.012703   1.000000
    5        0.358077   1.000000
    6        0.976851   1.000000
    7        1.793989   1.000000
    8        1.978411   1.000000
    9        6.791112   0.000000
   10        7.626262   0.000000
   11       10.448582   0.000000
   12       10.710616   0.000000
 
  0.0000000E+00  0.5000000E+00  0.2500000E+00  0.0000000E+00
    1       -9.999589   1.000000
    2       -9.368353   1.000000
    3       -3.649671   1.000000
    4       -2.786692   1.000000
    5       -0.038243   1.000000
    6        0.856238   1.000000
    7        1.659495   1.000000
    8        2.135876   1.000000
    9        6.979318   0.000000
   10        7.668690   0.000000
   11       10.451422   0.000000
   12       10.721084   0.000000
 
  0.0000000E+00  0.5000000E+00  0.1875000E+00  0.0000000E+00
    1      -10.055255   1.000000
    2       -9.316837   1.000000
    3       -3.577123   1.000000
    4       -2.560505   1.000000
    5       -0.401971   1.000000
    6        0.759527   1.000000
    7        1.459139   1.000000
    8        2.270092   1.000000
    9        7.281198   0.000000
   10        7.657292   0.000000
   11       10.068290   0.000000
   12       11.058391   0.000000
 
  0.0000000E+00  0.5000000E+00  0.1250000E+00  0.0000000E+00
    1      -10.096410   1.000000
    2       -9.279533   1.000000
    3       -3.490522   1.000000
    4       -2.359073   1.000000
    5       -0.703406   1.000000
    6        0.688911   1.000000
    7        1.251197   1.000000
    8        2.373011   1.000000
    9        7.627138   0.000000
   10        7.660153   0.000000
   11        9.624960   0.000000
   12       11.384011   0.000000
 
  0.0000000E+00  0.5000000E+00  0.6250000E-01  0.0000000E+00
    1      -10.121631   1.000000
    2       -9.256950   1.000000
    3       -3.417530   1.000000
    4       -2.215292   1.000000
    5       -0.907828   1.000000
    6        0.645949   1.000000
    7        1.093842   1.000000
    8        2.437855   1.000000
    9        7.601306   0.000000
   10        8.072884   0.000000
   11        9.172765   0.000000
   12       11.624181   0.000000
 
  0.0000000E+00  0.5000000E+00  0.0000000E+00  0.0000000E+00
    1      -10.130054   1.000000
    2       -9.249387   1.000000
    3       -3.388428   1.000000
    4       -2.162362   1.000000
    5       -0.981150   1.000000
    6        0.631531   1.000000
    7        1.034837   1.000000
    8        2.460055   1.000000
    9        7.591519   0.000000
   10        8.352411   0.000000
   11        8.880159   0.000000
   12       11.714232   0.000000
 
  0.0000000E+00  0.4687500E+00  0.0000000E+00  0.0000000E+00
    1      -10.184305   1.000000
    2       -9.233446   1.000000
    3       -3.360482   1.000000
    4       -2.119189   1.000000
    5       -1.027097   1.000000
    6        0.644971   1.000000
    7        1.096431   1.000000
    8        2.469876   1.000000
    9        7.599569   0.000000
   10        8.359538   0.000000
   11        8.897301   0.000000
   12       11.694842   0.000000
 
  0.0000000E+00  0.4375000E+00  0.0000000E+00  0.0000000E+00
    1      -10.327068   1.000000
    2       -9.202787   1.000000
    3       -3.276479   1.000000
    4       -2.002538   1.000000
    5       -1.135457   1.000000
    6        0.685066   1.000000
    7        1.261139   1.000000
    8        2.499125   1.000000
    9        7.622440   0.000000
   10        8.376044   0.000000
   11        8.952996   0.000000
   12       11.642434   0.000000
 
  0.0000000E+00  0.4062500E+00  0.0000000E+00  0.0000000E+00
    1      -10.523196   1.000000
    2       -9.185876   1.000000
    3       -3.141001   1.000000
    4       -1.862871   1.000000
    5       -1.221254   1.000000
    6        0.751058   1.000000
    7        1.488939   1.000000
    8        2.546863   1.000000
    9        7.655026   0.000000
   10        8.391201   0.000000
   11        9.055790   0.000000
   12       11.569106   0.000000
 
  0.0000000E+00  0.3750000E+00  0.0000000E+00  0.0000000E+00
    1      -10.745952   1.000000
    2       -9.197980   1.000000
    3       -2.977572   1.000000
    4       -1.797902   1.000000
    5       -1.145201   1.000000
    6        0.841675   1.000000
    7        1.745607   1.000000
    8        2.611672   1.000000
    9        7.684457   0.000000
   10        8.400876   0.000000
   11        9.211070   0.000000
   12       11.490547   0.000000
 
  0.0000000E+00  0.3437500E+00  0.0000000E+00  0.0000000E+00
    1      -10.978380   1.000000
    2       -9.241497   1.000000
    3       -2.850757   1.000000
    4       -1.765857   1.000000
    5       -0.882269   1.000000
    6        0.955064   1.000000
    7        2.008028   1.000000
    8        2.691476   1.000000
    9        7.685302   0.000000
   10        8.417725   0.000000
   11        9.415234   0.000000
   12       11.419846   0.000000
 
  0.0000000E+00  0.3125000E+00  0.0000000E+00  0.0000000E+00
    1      -11.209376   1.000000
    2       -9.311410   1.000000
    3       -2.844968   1.000000
    4       -1.598633   1.000000
    5       -0.524249   1.000000
    6        1.088802   1.000000
    7        2.261302   1.000000
    8        2.783638   1.000000
    9        7.625266   0.000000
   10        8.462860   0.000000
   11        9.656339   0.000000
   12       11.364443   0.000000
 
  0.0000000E+00  0.2812500E+00  0.0000000E+00  0.0000000E+00
    1      -11.431436   1.000000
    2       -9.399895   1.000000
    3       -2.953520   1.000000
    4       -1.269317   1.000000
    5       -0.118129   1.000000
    6        1.239743   1.000000
    7        2.495903   1.000000
    8        2.884856   1.000000
    9        7.488388   0.000000
   10        8.536400   0.000000
   11        9.915144   0.000000
   12       11.330519   0.000000
 
  0.0000000E+00  0.2500000E+00  0.0000000E+00  0.0000000E+00
    1      -11.639113   1.000000
    2       -9.498637   1.000000
    3       -3.112070   1.000000
    4       -0.838041   1.000000
    5        0.316386   1.000000
    6        1.403985   1.000000
    7        2.706007   1.000000
    8        2.991303   1.000000
    9        7.282017   0.000000
   10        8.601979   0.000000
   11       10.167183   0.000000
   12       11.338015   0.000000
 
  0.0000000E+00  0.2187500E+00  0.0000000E+00  0.0000000E+00
    1      -11.828636   1.000000
    2       -9.600271   1.000000
    3       -3.280650   1.000000
    4       -0.349909   1.000000
    5        0.767923   1.000000
    6        1.576746   1.000000
    7        2.888713   1.000000
    8        3.098580   1.000000
    9        7.020939   0.000000
   10        8.598951   0.000000
   11       10.400364   0.000000
   12       11.421250   0.000000
 
  0.0000000E+00  0.1875000E+00  0.0000000E+00  0.0000000E+00
    1      -11.997165   1.000000
    2       -9.698580   1.000000
    3       -3.440997   1.000000
    4        0.167677   1.000000
    5        1.228290   1.000000
    6        1.752249   1.000000
    7        3.043030   1.000000
    8        3.202015   1.000000
    9        6.717958   0.000000
   10        8.474936   0.000000
   11       10.644057   0.000000
   12       11.583972   0.000000
 
  0.0000000E+00  0.1562500E+00  0.0000000E+00  0.0000000E+00
    1      -12.142556   1.000000
    2       -9.788655   1.000000
    3       -3.584232   1.000000
    4        0.693266   1.000000
    5        1.690844   1.000000
    6        1.923661   1.000000
    7        3.169587   1.000000
    8        3.296884   1.000000
    9        6.383025   0.000000
   10        8.227615   0.000000
   11       10.939186   0.000000
   12       11.777783   0.000000
 
  0.0000000E+00  0.1250000E+00  0.0000000E+00  0.0000000E+00
    1      -12.263232   1.000000
    2       -9.866809   1.000000
    3       -3.705531   1.000000
    4        1.204641   1.000000
    5        2.083008   1.000000
    6        2.149374   1.000000
    7        3.269839   1.000000
    8        3.378835   1.000000
    9        6.024648   0.000000
   10        7.901263   0.000000
   11       11.288112   0.000000
   12       11.952419   0.000000
 
  0.0000000E+00  0.9375000E-01  0.0000000E+00  0.0000000E+00
    1      -12.358167   1.000000
    2       -9.930132   1.000000
    3       -3.802045   1.000000
    4        1.674018   1.000000
    5        2.221467   1.000000
    6        2.596430   1.000000
    7        3.345493   1.000000
    8        3.444362   1.000000
    9        5.652444   0.000000
   10        7.553027   0.000000
   11       11.660309   0.000000
   12       12.086562   0.000000
 
  0.0000000E+00  0.6250000E-01  0.0000000E+00  0.0000000E+00
    1      -12.426500   1.000000
    2       -9.976681   1.000000
    3       -3.872023   1.000000
    4        2.064059   1.000000
    5        2.329678   1.000000
    6        3.017647   1.000000
    7        3.398226   1.000000
    8        3.491468   1.000000
    9        5.283417   0.000000
   10        7.239366   0.000000
   11       12.002717   0.000000
   12       12.184090   0.000000
 
  0.0000000E+00  0.3125000E-01  0.0000000E+00  0.0000000E+00
    1      -12.467691   1.000000
    2      -10.005049   1.000000
    3       -3.914393   1.000000
    4        2.328357   1.000000
    5        2.398934   1.000000
    6        3.370253   1.000000
    7        3.429460   1.000000
    8        3.519531   1.000000
    9        4.962248   0.000000
   10        7.016910   0.000000
   11       12.196140   0.000000
   12       12.304254   0.000000
 
  0.0000000E+00  0.0000000E+00  0.0000000E+00  0.0000000E+00
    1      -12.481476   1.000000
    2      -10.014589   1.000000
    3       -3.928576   1.000000
    4        2.422805   1.000000
    5        2.422824   1.000000
    6        3.439658   1.000000
    7        3.528799   1.000000
    8        3.528805   1.000000
    9        4.814389   0.000000
   10        6.935603   0.000000
   11       12.226568   0.000000
   12       12.387425   0.000000
 
  0.0000000E+00  0.0000000E+00  0.6250000E-01  0.0000000E+00
    1      -12.465813   1.000000
    2      -10.055827   1.000000
    3       -3.858722   1.000000
    4        2.432667   1.000000
    5        2.432686   1.000000
    6        3.243537   1.000000
    7        3.517431   1.000000
    8        3.517437   1.000000
    9        4.987501   0.000000
   10        6.945665   0.000000
   11       12.194230   0.000000
   12       12.392132   0.000000
 
  0.0000000E+00  0.0000000E+00  0.1250000E+00  0.0000000E+00
    1      -12.418892   1.000000
    2      -10.173041   1.000000
    3       -3.655895   1.000000
    4        2.461980   1.000000
    5        2.461999   1.000000
    6        2.808577   1.000000
    7        3.483864   1.000000
    8        3.483868   1.000000
    9        5.352258   0.000000
   10        6.974996   0.000000
   11       12.099153   0.000000
   12       12.407669   0.000000
 
  0.0000000E+00  0.0000000E+00  0.1875000E+00  0.0000000E+00
    1      -12.341148   1.000000
    2      -10.350149   1.000000
    3       -3.337367   1.000000
    4        2.281758   1.000000
    5        2.509911   1.000000
    6        2.509929   1.000000
    7        3.429554   1.000000
    8        3.429557   1.000000
    9        5.758074   0.000000
   10        7.020642   0.000000
   11       11.955200   0.000000
   12       12.441083   0.000000
 
  0.0000000E+00  0.0000000E+00  0.2500000E+00  0.0000000E+00
    1      -12.233276   1.000000
    2      -10.567870   1.000000
    3       -2.924967   1.000000
    4        1.711467   1.000000
    5        2.574903   1.000000
    6        2.574920   1.000000
    7        3.356971   1.000000
    8        3.356972   1.000000
    9        6.150147   0.000000
   10        7.076770   0.000000
   11       11.777323   0.000000
   12       12.082669   0.000000
 
  0.0000000E+00  0.0000000E+00  0.3125000E+00  0.0000000E+00
    1      -12.096355   1.000000
    2      -10.807769   1.000000
    3       -2.440074   1.000000
    4        1.115844   1.000000
    5        2.654898   1.000000
    6        2.654913   1.000000
    7        3.269291   1.000000
    8        3.269292   1.000000
    9        6.501615   0.000000
   10        7.133683   0.000000
   11       11.587307   0.000000
   12       11.730298   0.000000
 
  0.0000000E+00  0.0000000E+00  0.3750000E+00  0.0000000E+00
    1      -11.931659   1.000000
    2      -11.054934   1.000000
    3       -1.901524   1.000000
    4        0.505527   1.000000
    5        2.747235   1.000000
    6        2.747248   1.000000
    7        3.170426   1.000000
    8        3.170430   1.000000
    9        6.792199   0.000000
   10        7.176397   0.000000
   11       11.412502   0.000000
   12       11.457506   0.000000
 
  0.0000000E+00  0.0000000E+00  0.4375000E+00  0.0000000E+00
    1      -11.741498   1.000000
    2      -11.298054   1.000000
    3       -1.325188   1.000000
    4       -0.110912   1.000000
    5        2.848789   1.000000
    6        2.848801   1.000000
    7        3.064524   1.000000
    8        3.064531   1.000000
    9        7.005257   0.000000
   10        7.184264   0.000000
   11       11.283988   0.000000
   12       11.288948   0.000000
 
  0.0000000E+00  0.0000000E+00  0.5000000E+00  0.0000000E+00
    1      -11.528891   1.000000
    2      -11.528889   1.000000
    3       -0.724498   1.000000
    4       -0.724495   1.000000
    5        2.955891   1.000000
    6        2.955894   1.000000
    7        2.955899   1.000000
    8        2.955904   1.000000
    9        7.133642   0.000000
   10        7.133651   0.000000
   11       11.234271   0.000000
   12       11.234275   0.000000
 
 -0.3030300E-01  0.3030300E-01  0.5000000E+00  0.0000000E+00
    1      -11.516991   1.000000
    2      -11.516989   1.000000
    3       -0.725390   1.000000
    4       -0.725387   1.000000
    5        2.889338   1.000000
    6        2.889342   1.000000
    7        2.939087   1.000000
    8        2.939089   1.000000
    9        7.193191   0.000000
   10        7.193199   0.000000
   11       11.184747   0.000000
   12       11.184751   0.000000
 
 -0.6060600E-01  0.6060600E-01  0.5000000E+00  0.0000000E+00
    1      -11.481426   1.000000
    2      -11.481424   1.000000
    3       -0.729744   1.000000
    4       -0.729741   1.000000
    5        2.704664   1.000000
    6        2.704667   1.000000
    7        2.889784   1.000000
    8        2.889786   1.000000
    9        7.355991   0.000000
   10        7.355999   0.000000
   11       11.048175   0.000000
   12       11.048180   0.000000
 
 -0.9090900E-01  0.9090900E-01  0.5000000E+00  0.0000000E+00
    1      -11.422608   1.000000
    2      -11.422606   1.000000
    3       -0.742901   1.000000
    4       -0.742898   1.000000
    5        2.437979   1.000000
    6        2.437982   1.000000
    7        2.811068   1.000000
    8        2.811071   1.000000
    9        7.583162   0.000000
   10        7.583169   0.000000
   11       10.855748   0.000000
   12       10.855753   0.000000
 
 -0.1212120E+00  0.1212120E+00  0.5000000E+00  0.0000000E+00
    1      -11.341231   1.000000
    2      -11.341229   1.000000
    3       -0.774691   1.000000
    4       -0.774688   1.000000
    5        2.131321   1.000000
    6        2.131322   1.000000
    7        2.707658   1.000000
    8        2.707660   1.000000
    9        7.826591   0.000000
   10        7.826598   0.000000
   11       10.649081   0.000000