Automatically generated mesh
      12
Reciprocal lattice
    0.00000000000000    0.00000000000000    0.00000000000000             1
    0.25000000000000    0.00000000000000    0.00000000000000             6
    0.50000000000000    0.00000000000000    0.00000000000000             3
    0.25000000000000    0.25000000000000    0.00000000000000             6
    0.00000000000000    0.00000000000000    0.25000000000000             2
    0.25000000000000    0.00000000000000    0.25000000000000            12
    0.50000000000000    0.00000000000000    0.25000000000000             6
    0.25000000000000    0.25000000000000    0.25000000000000            12
    0.00000000000000    0.00000000000000    0.50000000000000             1
    0.25000000000000    0.00000000000000    0.50000000000000             6
    0.50000000000000    0.00000000000000    0.50000000000000             3
    0.25000000000000    0.25000000000000    0.50000000000000             6
Tetrahedra
        72    0.00260416666667
         8         2         2         4         6
         8         1         2         2         6
         4         1         2         5         6
         4         2         4         6         8
         8         2         6         6         8
         8         2         5         6         6
         8         3         4         4         8
         8         2         3         4         8
         4         2         3         6         8
         4         3         4         8         8
         4         3         7         8         8
         8         3         6         7         8
         4         2         2         4         8
         4         2         3         7         8
         4         2         2         6         8
         8         2         6         7         8
         4         1         2         6         6
         4         1         5         6         6
         4         3         4         4         7
         8         2         3         4         7
         4         2         4         6         7
         4         4         4         7         8
         8         4         7         8         8
         8         4         6         7         8
         4         4         4         4         8
         4         4         4         8         8
         4         3         4         7         8
         4         4         8         8         8
         4         2         4         7         8
         8         2         3         4         6
         4         3         4         6         7
         4         2         4         6         6
         4         4         6         6         8
         4         3         4         6         8
         4         1         2         2         5
         4         2         2         5         6
         8         6         6         8        10
         8         5         6         6        10
         4         5         6         9        10
         4         6         8        10        12
         8         6        10        10        12
         8         6         9        10        10
         8         7         8         8        12
         8         6         7         8        12
         4         6         7        10        12
         4         7         8        12        12
         4         7        11        12        12
         8         7        10        11        12
         4         6         6         8        12
         4         6         7        11        12
         4         6         6        10        12
         8         6        10        11        12
         4         5         6        10        10
         4         5         9        10        10
         4         7         8         8        11
         8         6         7         8        11
         4         6         8        10        11
         4         8         8        11        12
         8         8        11        12        12
         8         8        10        11        12
         4         8         8         8        12
         4         8         8        12        12
         4         7         8        11        12
         4         8        12        12        12
         4         6         8        11        12
         8         6         7         8        10
         4         7         8        10        11
         4         6         8        10        10
         4         8        10        10        12
         4         7         8        10        12
         4         5         6         6         9
         4         6         6         9        10
