<?xml version="1.0" encoding="ISO-8859-1"?>
<modeling>
 <generator>
  <i name="program" type="string">vasp </i>
  <i name="version" type="string">5.4.1  </i>
  <i name="subversion" type="string">24Jun15 (build Oct 13 2015 09:47:18) complex                          parallel </i>
  <i name="platform" type="string">IFC91_ompi </i>
  <i name="date" type="string">2016 02 05 </i>
  <i name="time" type="string">13:09:43 </i>
 </generator>
 <incar>
  <i type="string" name="SYSTEM"> Band structure</i>
  <i type="string" name="PREC">normal</i>
  <i type="int" name="NSW">     0</i>
  <i name="ENCUT">    500.00000000</i>
  <i type="int" name="ISMEAR">     0</i>
  <i name="SIGMA">      0.01000000</i>
  <v type="int" name="KPOINT_BSE">    -1     0     0     0</v>
  <i type="string" name="GGA"> PS</i>
 </incar>
 <kpoints>
  <varray name="kpointlist" >
   <v>       0.00000000       0.00000000       0.00000000 </v>
   <v>       0.07772900       0.04487700       0.00000000 </v>
   <v>       0.15545900       0.08975400       0.00000000 </v>
   <v>       0.07772900       0.13463100       0.00000000 </v>
   <v>       0.00000000       0.00000000       0.04771000 </v>
   <v>       0.07772900       0.04487700       0.04771000 </v>
   <v>       0.15545900       0.08975400       0.04771000 </v>
   <v>       0.07772900       0.13463100       0.04771000 </v>
   <v>       0.00000000       0.00000000       0.09542100 </v>
   <v>       0.07772900       0.04487700       0.09542100 </v>
   <v>       0.15545900       0.08975400       0.09542100 </v>
   <v>       0.07772900       0.13463100       0.09542100 </v>
   <v>       0.00000000       0.00000000       0.50000000 </v>
   <v>       0.00000000       0.03125000       0.50000000 </v>
   <v>       0.00000000       0.06250000       0.50000000 </v>
   <v>       0.00000000       0.09375000       0.50000000 </v>
   <v>       0.00000000       0.12500000       0.50000000 </v>
   <v>       0.00000000       0.15625000       0.50000000 </v>
   <v>       0.00000000       0.18750000       0.50000000 </v>
   <v>       0.00000000       0.21875000       0.50000000 </v>
   <v>       0.00000000       0.25000000       0.50000000 </v>
   <v>       0.00000000       0.28125000       0.50000000 </v>
   <v>       0.00000000       0.31250000       0.50000000 </v>
   <v>       0.00000000       0.34375000       0.50000000 </v>
   <v>       0.00000000       0.37500000       0.50000000 </v>
   <v>       0.00000000       0.40625000       0.50000000 </v>
   <v>       0.00000000       0.43750000       0.50000000 </v>
   <v>       0.00000000       0.46875000       0.50000000 </v>
   <v>       0.00000000       0.50000000       0.50000000 </v>
   <v>       0.00000000       0.50000000       0.43750000 </v>
   <v>       0.00000000       0.50000000       0.37500000 </v>
   <v>       0.00000000       0.50000000       0.31250000 </v>
   <v>       0.00000000       0.50000000       0.25000000 </v>
   <v>       0.00000000       0.50000000       0.18750000 </v>
   <v>       0.00000000       0.50000000       0.12500000 </v>
   <v>       0.00000000       0.50000000       0.06250000 </v>
   <v>       0.00000000       0.50000000       0.00000000 </v>
   <v>       0.00000000       0.46875000       0.00000000 </v>
   <v>       0.00000000       0.43750000       0.00000000 </v>
   <v>       0.00000000       0.40625000       0.00000000 </v>
   <v>       0.00000000       0.37500000       0.00000000 </v>
   <v>       0.00000000       0.34375000       0.00000000 </v>
   <v>       0.00000000       0.31250000       0.00000000 </v>
   <v>       0.00000000       0.28125000       0.00000000 </v>
   <v>       0.00000000       0.25000000       0.00000000 </v>
   <v>       0.00000000       0.21875000       0.00000000 </v>
   <v>       0.00000000       0.18750000       0.00000000 </v>
   <v>       0.00000000       0.15625000       0.00000000 </v>
   <v>       0.00000000       0.12500000       0.00000000 </v>
   <v>       0.00000000       0.09375000       0.00000000 </v>
   <v>       0.00000000       0.06250000       0.00000000 </v>
   <v>       0.00000000       0.03125000       0.00000000 </v>
   <v>       0.00000000       0.00000000       0.00000000 </v>
   <v>       0.00000000       0.00000000       0.06250000 </v>
   <v>       0.00000000       0.00000000       0.12500000 </v>
   <v>       0.00000000       0.00000000       0.18750000 </v>
   <v>       0.00000000       0.00000000       0.25000000 </v>
   <v>       0.00000000       0.00000000       0.31250000 </v>
   <v>       0.00000000       0.00000000       0.37500000 </v>
   <v>       0.00000000       0.00000000       0.43750000 </v>
   <v>       0.00000000       0.00000000       0.50000000 </v>
   <v>      -0.03030300       0.03030300       0.50000000 </v>
   <v>      -0.06060600       0.06060600       0.50000000 </v>
   <v>      -0.09090900       0.09090900       0.50000000 </v>
   <v>      -0.12121200       0.12121200       0.50000000 </v>
   <v>      -0.15151500       0.15151500       0.50000000 </v>
   <v>      -0.18181800       0.18181800       0.50000000 </v>
   <v>      -0.21212100       0.21212100       0.50000000 </v>
   <v>      -0.24242400       0.24242400       0.50000000 </v>
   <v>      -0.27272700       0.27272700       0.50000000 </v>
   <v>      -0.30303000       0.30303000       0.50000000 </v>
   <v>      -0.33333300       0.33333300       0.50000000 </v>
  </varray>
  <varray name="weights" >
   <v>       0.01562500 </v>
   <v>       0.09375000 </v>
   <v>       0.04687500 </v>
   <v>       0.09375000 </v>
   <v>       0.03125000 </v>
   <v>       0.18750000 </v>
   <v>       0.09375000 </v>
   <v>       0.18750000 </v>
   <v>       0.01562500 </v>
   <v>       0.09375000 </v>
   <v>       0.04687500 </v>
   <v>       0.09375000 </v>
   <v>       0.00000000 </v>
   <v>       0.00000000 </v>
   <v>       0.00000000 </v>
   <v>       0.00000000 </v>
   <v>       0.00000000 </v>
   <v>       0.00000000 </v>
   <v>       0.00000000 </v>
   <v>       0.00000000 </v>
   <v>       0.00000000 </v>
   <v>       0.00000000 </v>
   <v>       0.00000000 </v>
   <v>       0.00000000 </v>
   <v>       0.00000000 </v>
   <v>       0.00000000 </v>
   <v>       0.00000000 </v>
   <v>       0.00000000 </v>
   <v>       0.00000000 </v>
   <v>       0.00000000 </v>
   <v>       0.00000000 </v>
   <v>       0.00000000 </v>
   <v>       0.00000000 </v>
   <v>       0.00000000 </v>
   <v>       0.00000000 </v>
   <v>       0.00000000 </v>
   <v>       0.00000000 </v>
   <v>       0.00000000 </v>
   <v>       0.00000000 </v>
   <v>       0.00000000 </v>
   <v>       0.00000000 </v>
   <v>       0.00000000 </v>
   <v>       0.00000000 </v>
   <v>       0.00000000 </v>
   <v>       0.00000000 </v>
   <v>       0.00000000 </v>
   <v>       0.00000000 </v>
   <v>       0.00000000 </v>
   <v>       0.00000000 </v>
   <v>       0.00000000 </v>
   <v>       0.00000000 </v>
   <v>       0.00000000 </v>
   <v>       0.00000000 </v>
   <v>       0.00000000 </v>
   <v>       0.00000000 </v>
   <v>       0.00000000 </v>
   <v>       0.00000000 </v>
   <v>       0.00000000 </v>
   <v>       0.00000000 </v>
   <v>       0.00000000 </v>
   <v>       0.00000000 </v>
   <v>       0.00000000 </v>
   <v>       0.00000000 </v>
   <v>       0.00000000 </v>
   <v>       0.00000000 </v>
   <v>       0.00000000 </v>
   <v>       0.00000000 </v>
   <v>       0.00000000 </v>
   <v>       0.00000000 </v>
   <v>       0.00000000 </v>
   <v>       0.00000000 </v>
   <v>       0.00000000 </v>
  </varray>
 </kpoints>
 <parameters>
  <separator name="general" >
   <i type="string" name="SYSTEM">Band structure</i>
   <i type="logical" name="LCOMPAT"> F  </i>
  </separator>
  <separator name="electronic" >
   <i type="string" name="PREC">normal</i>
   <i name="ENMAX">    500.00000000</i>
   <i name="ENAUG">    627.11200000</i>
   <i name="EDIFF">      0.00010000</i>
   <i type="int" name="IALGO">    38</i>
   <i type="int" name="IWAVPR">    10</i>
   <i type="int" name="NBANDS">    12</i>
   <i name="NELECT">     16.00000000</i>
   <i type="int" name="TURBO">     0</i>
   <i type="int" name="IRESTART">     0</i>
   <i type="int" name="NREBOOT">     0</i>
   <i type="int" name="NMIN">     0</i>
   <i name="EREF">      0.00000000</i>
   <separator name="electronic smearing" >
    <i type="int" name="ISMEAR">     0</i>
    <i name="SIGMA">      0.01000000</i>
    <i name="KSPACING">      0.50000000</i>
    <i type="logical" name="KGAMMA"> T  </i>
   </separator>
   <separator name="electronic projectors" >
    <i type="logical" name="LREAL"> F  </i>
    <v name="ROPT">      0.00000000      0.00000000</v>
    <i type="int" name="LMAXPAW">  -100</i>
    <i type="int" name="LMAXMIX">     2</i>
    <i type="logical" name="NLSPLINE"> F  </i>
   </separator>
   <separator name="electronic startup" >
    <i type="int" name="ISTART">     1</i>
    <i type="int" name="ICHARG">     0</i>
    <i type="int" name="INIWAV">     1</i>
   </separator>
   <separator name="electronic spin" >
    <i type="int" name="ISPIN">     1</i>
    <i type="logical" name="LNONCOLLINEAR"> F  </i>
    <v name="MAGMOM">      1.00000000      1.00000000      1.00000000      1.00000000</v>
    <i name="NUPDOWN">     -1.00000000</i>
    <i type="logical" name="LSORBIT"> F  </i>
    <v name="SAXIS">      0.00000000      0.00000000      1.00000000</v>
    <i type="logical" name="LSPIRAL"> F  </i>
    <v name="QSPIRAL">      0.00000000      0.00000000      0.00000000</v>
    <i type="logical" name="LZEROZ"> F  </i>
   </separator>
   <separator name="electronic exchange-correlation" >
    <i type="logical" name="LASPH"> F  </i>
    <i type="logical" name="LMETAGGA"> F  </i>
   </separator>
   <separator name="electronic convergence" >
    <i type="int" name="NELM">    60</i>
    <i type="int" name="NELMDL">     0</i>
    <i type="int" name="NELMIN">     2</i>
    <i name="ENINI">    500.00000000</i>
    <separator name="electronic convergence detail" >
     <i type="logical" name="LDIAG"> T  </i>
     <i type="logical" name="LSUBROT"> F  </i>
     <i name="WEIMIN">      0.00000000</i>
     <i name="EBREAK">      0.00000208</i>
     <i name="DEPER">      0.30000000</i>
     <i type="int" name="NRMM">     4</i>
     <i name="TIME">      0.40000000</i>
    </separator>
   </separator>
   <separator name="electronic mixer" >
    <i name="AMIX">      0.40000000</i>
    <i name="BMIX">      1.00000000</i>
    <i name="AMIN">      0.10000000</i>
    <i name="AMIX_MAG">      1.60000000</i>
    <i name="BMIX_MAG">      1.00000000</i>
    <separator name="electronic mixer details" >
     <i type="int" name="IMIX">     4</i>
     <i type="logical" name="MIXFIRST"> F  </i>
     <i type="int" name="MAXMIX">   -45</i>
     <i name="WC">    100.00000000</i>
     <i type="int" name="INIMIX">     1</i>
     <i type="int" name="MIXPRE">     1</i>
     <i type="int" name="MREMOVE">     5</i>
    </separator>
   </separator>
   <separator name="electronic dipolcorrection" >
    <i type="logical" name="LDIPOL"> F  </i>
    <i type="logical" name="LMONO"> F  </i>
    <i type="int" name="IDIPOL">     0</i>
    <i name="EPSILON">      1.00000000</i>
    <v name="DIPOL">   -100.00000000   -100.00000000   -100.00000000</v>
    <i name="EFIELD">      0.00000000</i>
   </separator>
  </separator>
  <separator name="grids" >
   <i type="int" name="NGX">    18</i>
   <i type="int" name="NGY">    18</i>
   <i type="int" name="NGZ">    30</i>
   <i type="int" name="NGXF">    36</i>
   <i type="int" name="NGYF">    36</i>
   <i type="int" name="NGZF">    60</i>
   <i type="logical" name="ADDGRID"> F  </i>
  </separator>
  <separator name="ionic" >
   <i type="int" name="NSW">     0</i>
   <i type="int" name="IBRION">    -1</i>
   <i type="int" name="ISIF">     2</i>
   <i name="PSTRESS">      0.00000000</i>
   <i name="EDIFFG">      0.00100000</i>
   <i type="int" name="NFREE">     0</i>
   <i name="POTIM">      0.50000000</i>
   <i name="SMASS">     -3.00000000</i>
   <i name="SCALEE">      1.00000000</i>
  </separator>
  <separator name="ionic md" >
   <i name="TEBEG">      0.00010000</i>
   <i name="TEEND">      0.00010000</i>
   <i type="int" name="NBLOCK">     1</i>
   <i type="int" name="KBLOCK">     1</i>
   <i type="int" name="NPACO">   256</i>
   <i name="APACO">     16.00000000</i>
  </separator>
  <separator name="symmetry" >
   <i type="int" name="ISYM">     2</i>
   <i name="SYMPREC">      0.00001000</i>
  </separator>
  <separator name="dos" >
   <i type="logical" name="LORBIT"> F  </i>
   <v name="RWIGS">     -1.00000000     -1.00000000</v>
   <i type="int" name="NEDOS">   301</i>
   <i name="EMIN">     10.00000000</i>
   <i name="EMAX">    -10.00000000</i>
   <i name="EFERMI">      0.00000000</i>
  </separator>
  <separator name="writing" >
   <i type="int" name="NWRITE">     2</i>
   <i type="logical" name="LWAVE"> T  </i>
   <i type="logical" name="LCHARG"> T  </i>
   <i type="logical" name="LPARD"> F  </i>
   <i type="logical" name="LVTOT"> F  </i>
   <i type="logical" name="LVHAR"> F  </i>
   <i type="logical" name="LELF"> F  </i>
   <i type="logical" name="LOPTICS"> F  </i>
   <v name="STM">      0.00000000      0.00000000      0.00000000      0.00000000      0.00000000      0.00000000      0.00000000</v>
  </separator>
  <separator name="performance" >
   <i type="int" name="NPAR">     1</i>
   <i type="int" name="NSIM">     4</i>
   <i type="int" name="NBLK">    -1</i>
   <i type="logical" name="LPLANE"> T  </i>
   <i type="logical" name="LSCALAPACK"> F  </i>
   <i type="logical" name="LSCAAWARE"> F  </i>
   <i type="logical" name="LSCALU"> F  </i>
   <i type="logical" name="LASYNC"> F  </i>
   <i type="logical" name="LORBITALREAL"> F  </i>
  </separator>
  <separator name="miscellaneous" >
   <i type="int" name="IDIOT">     3</i>
   <i type="logical" name="LMUSIC"> F  </i>
   <v name="POMASS">     69.72300000     14.00100000</v>
   <v name="DARWINR">      0.00000000      0.00000000</v>
   <v name="DARWINV">      1.00000000      1.00000000</v>
   <i type="logical" name="LCORR"> T  </i>
  </separator>
  <i type="logical" name="GGA_COMPAT"> T  </i>
  <i type="logical" name="LBERRY"> F  </i>
  <i type="int" name="ICORELEVEL">     0</i>
  <i type="logical" name="LDAU"> F  </i>
  <i type="int" name="I_CONSTRAINED_M">     0</i>
  <separator name="electronic exchange-correlation" >
   <i type="string" name="GGA">PS</i>
   <i type="int" name="VOSKOWN">     0</i>
   <i type="logical" name="LHFCALC"> F  </i>
   <i type="string" name="PRECFOCK"></i>
   <i type="logical" name="LSYMGRAD"> F  </i>
   <i type="logical" name="LHFONE"> F  </i>
   <i type="logical" name="LRHFCALC"> F  </i>
   <i type="logical" name="LTHOMAS"> F  </i>
   <i type="logical" name="LMODELHF"> F  </i>
   <i name="ENCUT4O">     -1.00000000</i>
   <i type="int" name="EXXOEP">     0</i>
   <i type="int" name="FOURORBIT">     0</i>
   <i name="AEXX">      0.00000000</i>
   <i name="HFALPHA">      0.00000000</i>
   <i name="MCALPHA">      0.00000000</i>
   <i name="ALDAX">      1.00000000</i>
   <i name="AGGAX">      1.00000000</i>
   <i name="ALDAC">      1.00000000</i>
   <i name="AGGAC">      1.00000000</i>
   <i type="int" name="NKREDX">     1</i>
   <i type="int" name="NKREDY">     1</i>
   <i type="int" name="NKREDZ">     1</i>
   <i type="logical" name="SHIFTRED"> F  </i>
   <i type="logical" name="ODDONLY"> F  </i>
   <i type="logical" name="EVENONLY"> F  </i>
   <i type="int" name="LMAXFOCK">     0</i>
   <i type="int" name="NMAXFOCKAE">     0</i>
   <i type="logical" name="LFOCKAEDFT"> F  </i>
   <i name="HFSCREEN">      0.00000000</i>
   <i name="HFSCREENC">      0.00000000</i>
   <i type="int" name="NBANDSGWLOW">     0</i>
  </separator>
  <separator name="vdW DFT" >
   <i type="logical" name="LUSE_VDW"> F  </i>
   <i name="Zab_VDW">     -0.84910000</i>
   <i name="PARAM1">      0.12340000</i>
   <i name="PARAM2">      1.00000000</i>
   <i name="PARAM3">      0.00000000</i>
  </separator>
  <separator name="model GW" >
   <i type="int" name="MODEL_GW">     0</i>
   <i name="MODEL_EPS0">      7.04142410</i>
   <i name="MODEL_ALPHA">      1.00000000</i>
  </separator>
  <separator name="linear response parameters" >
   <i type="logical" name="LEPSILON"> F  </i>
   <i type="logical" name="LRPA"> F  </i>
   <i type="logical" name="LNABLA"> F  </i>
   <i type="logical" name="LVEL"> F  </i>
   <i type="int" name="KINTER">     0</i>
   <i name="CSHIFT">      0.10000000</i>
   <i name="OMEGAMAX">     -1.00000000</i>
   <i name="DEG_THRESHOLD">      0.00200000</i>
  </separator>
  <separator name="orbital magnetization" >
   <i type="logical" name="NUCIND"> F  </i>
   <v name="MAGPOS">      0.00000000      0.00000000      0.00000000</v>
   <i type="logical" name="LNICSALL"> T  </i>
   <i type="logical" name="ORBITALMAG"> F  </i>
   <i type="logical" name="LMAGBLOCH"> F  </i>
   <i type="logical" name="LCHIMAG"> F  </i>
   <i type="logical" name="LGAUGE"> T  </i>
   <i type="int" name="MAGATOM">     0</i>
   <v name="MAGDIPOL">      0.00000000      0.00000000      0.00000000</v>
   <v name="AVECCONST">      0.00000000      0.00000000      0.00000000</v>
  </separator>
  <separator name="response functions" >
   <i type="logical" name="LADDER"> F  </i>
   <i type="logical" name="LFXC"> F  </i>
   <i type="logical" name="LHARTREE"> T  </i>
   <i type="int" name="IBSE">     0</i>
   <v type="int" name="KPOINT">    -1     0     0     0</v>
   <i type="logical" name="LTCTE"> F  </i>
   <i type="logical" name="LTETE"> F  </i>
   <i type="logical" name="LTRIPLET"> F  </i>
   <i type="logical" name="LFXCEPS"> F  </i>
   <i type="logical" name="LFXHEG"> F  </i>
   <i type="int" name="NATURALO">     0</i>
   <i type="logical" name="L2ORDER"> F  </i>
   <i type="logical" name="LUSEW"> F  </i>
   <i name="ENCUTGW">     -2.00000000</i>
   <i name="ENCUTGWSOFT">     -2.00000000</i>
   <i name="ENCUTLF">     -1.00000000</i>
   <i type="int" name="LMAXMP2">    -1</i>
   <i name="SCISSOR">      0.00000000</i>
   <i type="int" name="NOMEGA">     0</i>
   <i type="int" name="NOMEGAR">     0</i>
   <i type="int" name="NBANDSGW">    -1</i>
   <i type="int" name="NBANDSO">    -1</i>
   <i type="int" name="NBANDSV">    -1</i>
   <i type="int" name="NELM">     1</i>
   <i type="int" name="NELMHF">     1</i>
   <i type="int" name="DIM">     3</i>
   <i type="int" name="ANTIRES">     0</i>
   <i name="OMEGAMAX">    -30.00000000</i>
   <i name="OMEGAMIN">    -30.00000000</i>
   <i name="OMEGATL">   -200.00000000</i>
   <i type="int" name="OMEGAGRID">     0</i>
   <i name="CSHIFT">     -0.10000000</i>
   <i type="logical" name="SELFENERGY"> F  </i>
   <i type="logical" name="LSPECTRAL"> F  </i>
   <i type="logical" name="LSPECTRALGW"> F  </i>
   <i type="logical" name="LSINGLES"> F  </i>
   <i type="logical" name="LFERMIGW"> F  </i>
   <i type="logical" name="ODDONLYGW"> F  </i>
   <i type="logical" name="EVENONLYGW"> F  </i>
   <i type="int" name="NKREDLFX">     1</i>
   <i type="int" name="NKREDLFY">     1</i>
   <i type="int" name="NKREDLFZ">     1</i>
   <i type="int" name="MAXMEM">  1800</i>
   <i type="int" name="TELESCOPE">     0</i>
   <i type="int" name="TAUPAR">     1</i>
   <i type="int" name="OMEGAPAR">    -1</i>
   <i name="LAMBDA">      1.00000000</i>
  </separator>
  <separator name="External order field" >
   <i name="OFIELD_KAPPA">      0.00000000</i>
   <v name="OFIELD_K">      0.00000000      0.00000000      0.00000000</v>
   <i name="OFIELD_Q6_NEAR">      0.00000000</i>
   <i name="OFIELD_Q6_FAR">      0.00000000</i>
   <i name="OFIELD_A">      0.00000000</i>
  </separator>
 </parameters>
 <atominfo>
  <atoms>       4 </atoms>
  <types>       2 </types>
  <array name="atoms" >
   <dimension dim="1">ion</dimension>
   <field type="string">element</field>
   <field type="int">atomtype</field>
   <set>
    <rc><c>Ga</c><c>   1</c></rc>
    <rc><c>Ga</c><c>   1</c></rc>
    <rc><c>N </c><c>   2</c></rc>
    <rc><c>N </c><c>   2</c></rc>
   </set>
  </array>
  <array name="atomtypes" >
   <dimension dim="1">type</dimension>
   <field type="int">atomspertype</field>
   <field type="string">element</field>
   <field>mass</field>
   <field>valence</field>
   <field type="string">pseudopotential</field>
   <set>
    <rc><c>   2</c><c>Ga</c><c>     69.72300000</c><c>      3.00000000</c><c>  PAW_PBE Ga 08Apr2002                  </c></rc>
    <rc><c>   2</c><c>N </c><c>     14.00100000</c><c>      5.00000000</c><c>  PAW_PBE N 08Apr2002                   </c></rc>
   </set>
  </array>
 </atominfo>
 <structure name="initialpos" >
  <crystal>
   <varray name="basis" >
    <v>       3.21629013       0.00000000       0.00000000 </v>
    <v>      -1.60814506       2.78538896       0.00000000 </v>
    <v>       0.00000000       0.00000000       5.23996246 </v>
   </varray>
   <i name="volume">     46.94282733 </i>
   <varray name="rec_basis" >
    <v>       0.31091722       0.17950814      -0.00000000 </v>
    <v>       0.00000000       0.35901629      -0.00000000 </v>
    <v>       0.00000000       0.00000000       0.19084106 </v>
   </varray>
  </crystal>
  <varray name="positions" >
   <v>       0.33333300       0.66666700       0.50088000 </v>
   <v>       0.66666700       0.33333300       0.00088000 </v>
   <v>       0.33333300       0.66666700       0.12412000 </v>
   <v>       0.66666700       0.33333300       0.62412000 </v>
  </varray>
 </structure>
 <calculation>
  <scstep>
   <time name="dav">    4.10    1.05</time>
   <time name="total">    4.33    1.11</time>
   <energy>
    <i name="alphaZ">     55.22248989 </i>
    <i name="ewald">   -569.32930121 </i>
    <i name="hartreedc">   -153.95934575 </i>
    <i name="XCdc">      4.73259952 </i>
    <i name="pawpsdc">   2078.01879312 </i>
    <i name="pawaedc">  -2034.66991188 </i>
    <i name="eentropy">     -0.00000000 </i>
    <i name="bandstr">    -39.80047498 </i>
    <i name="atom">    643.95324971 </i>
    <i name="e_fr_energy">    -15.83190158 </i>
    <i name="e_wo_entrp">    -15.83190158 </i>
    <i name="e_0_energy">    -15.83190158 </i>
   </energy>
  </scstep>
  <scstep>
   <time name="dav">    4.01    1.04</time>
   <time name="total">    4.24    1.10</time>
   <energy>
    <i name="e_fr_energy">    -16.41032733 </i>
    <i name="e_wo_entrp">    -16.41032733 </i>
    <i name="e_0_energy">    -16.41032733 </i>
   </energy>
  </scstep>
  <scstep>
   <time name="dav">    4.15    1.08</time>
   <time name="total">    4.40    1.15</time>
   <energy>
    <i name="e_fr_energy">    -16.36920096 </i>
    <i name="e_wo_entrp">    -16.36920096 </i>
    <i name="e_0_energy">    -16.36920096 </i>
   </energy>
  </scstep>
  <scstep>
   <time name="dav">    4.06    1.06</time>
   <time name="total">    4.31    1.12</time>
   <energy>
    <i name="e_fr_energy">    -16.39717424 </i>
    <i name="e_wo_entrp">    -16.39717424 </i>
    <i name="e_0_energy">    -16.39717424 </i>
   </energy>
  </scstep>
  <scstep>
   <time name="dav">    3.74    0.95</time>
   <time name="total">    3.99    1.01</time>
   <energy>
    <i name="e_fr_energy">    -16.36839514 </i>
    <i name="e_wo_entrp">    -16.36839514 </i>
    <i name="e_0_energy">    -16.36839514 </i>
   </energy>
  </scstep>
  <scstep>
   <time name="dav">    3.96    1.01</time>
   <time name="total">    4.18    1.07</time>
   <energy>
    <i name="e_fr_energy">    -16.36731749 </i>
    <i name="e_wo_entrp">    -16.36731749 </i>
    <i name="e_0_energy">    -16.36731749 </i>
   </energy>
  </scstep>
  <scstep>
   <time name="dav">    3.46    0.87</time>
   <time name="total">    3.61    0.92</time>
   <energy>
    <i name="alphaZ">     55.22248989 </i>
    <i name="ewald">   -569.32930121 </i>
    <i name="hartreedc">   -165.87505983 </i>
    <i name="XCdc">      5.83254182 </i>
    <i name="pawpsdc">   1656.40237317 </i>
    <i name="pawaedc">  -1613.09631924 </i>
    <i name="eentropy">     -0.00000000 </i>
    <i name="bandstr">    -29.47733766 </i>
    <i name="atom">    643.95324971 </i>
    <i name="e_fr_energy">    -16.36736334 </i>
    <i name="e_wo_entrp">    -16.36736334 </i>
    <i name="e_0_energy">    -16.36736334 </i>
   </energy>
  </scstep>
  <structure>
   <crystal>
    <varray name="basis" >
     <v>       3.21629013       0.00000000       0.00000000 </v>
     <v>      -1.60814506       2.78538896       0.00000000 </v>
     <v>       0.00000000       0.00000000       5.23996246 </v>
    </varray>
    <i name="volume">     46.94282733 </i>
    <varray name="rec_basis" >
     <v>       0.31091722       0.17950814      -0.00000000 </v>
     <v>       0.00000000       0.35901629      -0.00000000 </v>
     <v>       0.00000000       0.00000000       0.19084106 </v>
    </varray>
   </crystal>
   <varray name="positions" >
    <v>       0.33333300       0.66666700       0.50088000 </v>
    <v>       0.66666700       0.33333300       0.00088000 </v>
    <v>       0.33333300       0.66666700       0.12412000 </v>
    <v>       0.66666700       0.33333300       0.62412000 </v>
   </varray>
  </structure>
  <varray name="forces" >
   <v>      -0.00000000      -0.00000000      -1.11925765 </v>
   <v>      -0.00000000      -0.00000000      -1.11925765 </v>
   <v>       0.00000000       0.00000000       1.11925765 </v>
   <v>       0.00000000       0.00000000       1.11925765 </v>
  </varray>
  <varray name="stress" >
   <v>     386.57087764       0.00000000       0.00000000 </v>
   <v>       0.00000000     386.57087764       0.00000000 </v>
   <v>       0.00000000       0.00000000     123.99028455 </v>
  </varray>
  <energy>
   <i name="e_fr_energy">    -16.36736334 </i>
   <i name="e_wo_entrp">    -16.36736334 </i>
   <i name="e_0_energy">     -0.00000000 </i>
  </energy>
  <time name="totalsc">   33.59    8.94</time>
  <eigenvalues>
   <array>
    <dimension dim="1">band</dimension>
    <dimension dim="2">kpoint</dimension>
    <dimension dim="3">spin</dimension>
    <field>eigene</field>
    <field>occ</field>
    <set>
     <set comment="spin 1">
      <set comment="kpoint 1">
       <r>  -12.4815    1.0000 </r>
       <r>  -10.0146    1.0000 </r>
       <r>   -3.9286    1.0000 </r>
       <r>    2.4228    1.0000 </r>
       <r>    2.4228    1.0000 </r>
       <r>    3.4397    1.0000 </r>
       <r>    3.5288    1.0000 </r>
       <r>    3.5288    1.0000 </r>
       <r>    4.8144    0.0000 </r>
       <r>    6.9356    0.0000 </r>
       <r>   12.2247    0.0000 </r>
       <r>   12.3874    0.0000 </r>
      </set>
      <set comment="kpoint 2">
       <r>  -12.3198    1.0000 </r>
       <r>   -9.9044    1.0000 </r>
       <r>   -3.7629    1.0000 </r>
       <r>    1.5101    1.0000 </r>
       <r>    2.0517    1.0000 </r>
       <r>    2.4954    1.0000 </r>
       <r>    3.3160    1.0000 </r>
       <r>    3.3948    1.0000 </r>
       <r>    5.8207    0.0000 </r>
       <r>    7.7134    0.0000 </r>
       <r>   11.5649    0.0000 </r>
       <r>   11.8932    0.0000 </r>
      </set>
      <set comment="kpoint 3">
       <r>  -11.8503    1.0000 </r>
       <r>   -9.6116    1.0000 </r>
       <r>   -3.2997    1.0000 </r>
       <r>   -0.0997    1.0000 </r>
       <r>    0.6114    1.0000 </r>
       <r>    1.6297    1.0000 </r>
       <r>    2.9257    1.0000 </r>
       <r>    2.9471    1.0000 </r>
       <r>    7.0828    0.0000 </r>
       <r>    8.9236    0.0000 </r>
       <r>   10.5313    0.0000 </r>
       <r>   11.0019    0.0000 </r>
      </set>
      <set comment="kpoint 4">
       <r>  -12.0041    1.0000 </r>
       <r>   -9.7024    1.0000 </r>
       <r>   -3.4474    1.0000 </r>
       <r>    0.3285    1.0000 </r>
       <r>    1.0277    1.0000 </r>
       <r>    1.8650    1.0000 </r>
       <r>    3.0585    1.0000 </r>
       <r>    3.0961    1.0000 </r>
       <r>    6.7543    0.0000 </r>
       <r>    8.6343    0.0000 </r>
       <r>   10.7646    0.0000 </r>
       <r>   11.2490    0.0000 </r>
      </set>
      <set comment="kpoint 5">
       <r>  -12.4723    1.0000 </r>
       <r>  -10.0388    1.0000 </r>
       <r>   -3.8877    1.0000 </r>
       <r>    2.4285    1.0000 </r>
       <r>    2.4286    1.0000 </r>
       <r>    3.3201    1.0000 </r>
       <r>    3.5222    1.0000 </r>
       <r>    3.5222    1.0000 </r>
       <r>    4.9206    0.0000 </r>
       <r>    6.9415    0.0000 </r>
       <r>   12.2051    0.0000 </r>
       <r>   13.1675    0.0000 </r>
      </set>
      <set comment="kpoint 6">
       <r>  -12.3108    1.0000 </r>
       <r>   -9.9276    1.0000 </r>
       <r>   -3.7240    1.0000 </r>
       <r>    1.5177    1.0000 </r>
       <r>    2.0486    1.0000 </r>
       <r>    2.4578    1.0000 </r>
       <r>    3.3003    1.0000 </r>
       <r>    3.3871    1.0000 </r>
       <r>    5.8627    0.0000 </r>
       <r>    7.7184    0.0000 </r>
       <r>   11.5666    0.0000 </r>
       <r>   11.8675    0.0000 </r>
      </set>
      <set comment="kpoint 7">
       <r>  -11.8417    1.0000 </r>
       <r>   -9.6320    1.0000 </r>
       <r>   -3.2690    1.0000 </r>
       <r>   -0.0870    1.0000 </r>
       <r>    0.5960    1.0000 </r>
       <r>    1.6230    1.0000 </r>
       <r>    2.9158    1.0000 </r>
       <r>    2.9430    1.0000 </r>
       <r>    7.0910    0.0000 </r>
       <r>    8.9289    0.0000 </r>
       <r>   10.5307    0.0000 </r>
       <r>   10.9843    0.0000 </r>
      </set>
      <set comment="kpoint 8">
       <r>  -11.9953    1.0000 </r>
       <r>   -9.7238    1.0000 </r>
       <r>   -3.4134    1.0000 </r>
       <r>    0.3393    1.0000 </r>
       <r>    1.0118    1.0000 </r>
       <r>    1.8564    1.0000 </r>
       <r>    3.0486    1.0000 </r>
       <r>    3.0883    1.0000 </r>
       <r>    6.7708    0.0000 </r>
       <r>    8.6390    0.0000 </r>
       <r>   10.7669    0.0000 </r>
       <r>   11.2235    0.0000 </r>
      </set>
      <set comment="kpoint 9">
       <r>  -12.4450    1.0000 </r>
       <r>  -10.1089    1.0000 </r>
       <r>   -3.7675    1.0000 </r>
       <r>    2.4457    1.0000 </r>
       <r>    2.4458    1.0000 </r>
       <r>    3.0315    1.0000 </r>
       <r>    3.5024    1.0000 </r>
       <r>    3.5024    1.0000 </r>
       <r>    5.1686    0.0000 </r>
       <r>    6.9589    0.0000 </r>
       <r>   12.1496    0.0000 </r>
       <r>   12.9936    0.0000 </r>
      </set>
      <set comment="kpoint 10">
       <r>  -12.2838    1.0000 </r>
       <r>   -9.9952    1.0000 </r>
       <r>   -3.6096    1.0000 </r>
       <r>    1.5404    1.0000 </r>
       <r>    2.0258    1.0000 </r>
       <r>    2.3636    1.0000 </r>
       <r>    3.2561    1.0000 </r>
       <r>    3.3640    1.0000 </r>
       <r>    5.9813    0.0000 </r>
       <r>    7.7329    0.0000 </r>
       <r>   11.5667    0.0000 </r>
       <r>   11.7959    0.0000 </r>
      </set>
      <set comment="kpoint 11">
       <r>  -11.8159    1.0000 </r>
       <r>   -9.6916    1.0000 </r>
       <r>   -3.1789    1.0000 </r>
       <r>   -0.0494    1.0000 </r>
       <r>    0.5487    1.0000 </r>
       <r>    1.6082    1.0000 </r>
       <r>    2.8836    1.0000 </r>
       <r>    2.9290    1.0000 </r>
       <r>    7.1174    0.0000 </r>
       <r>    8.9439    0.0000 </r>
       <r>   10.5226    0.0000 </r>
       <r>   10.9396    0.0000 </r>
      </set>
      <set comment="kpoint 12">
       <r>  -11.9690    1.0000 </r>
       <r>   -9.7862    1.0000 </r>
       <r>   -3.3137    1.0000 </r>
       <r>    0.3713    1.0000 </r>
       <r>    0.9613    1.0000 </r>
       <r>    1.8371    1.0000 </r>
       <r>    3.0167    1.0000 </r>
       <r>    3.0642    1.0000 </r>
       <r>    6.8211    0.0000 </r>
       <r>    8.6528    0.0000 </r>
       <r>   10.7683    0.0000 </r>
       <r>   11.1549    0.0000 </r>
      </set>
      <set comment="kpoint 13">
       <r>  -11.5289    1.0000 </r>
       <r>  -11.5289    1.0000 </r>
       <r>   -0.7245    1.0000 </r>
       <r>   -0.7245    1.0000 </r>
       <r>    2.9559    1.0000 </r>
       <r>    2.9559    1.0000 </r>
       <r>    2.9559    1.0000 </r>
       <r>    2.9559    1.0000 </r>
       <r>    7.1336    0.0000 </r>
       <r>    7.1337    0.0000 </r>
       <r>   11.2343    0.0000 </r>
       <r>   11.2343    0.0000 </r>
      </set>
      <set comment="kpoint 14">
       <r>  -11.5162    1.0000 </r>
       <r>  -11.5162    1.0000 </r>
       <r>   -0.7255    1.0000 </r>
       <r>   -0.7255    1.0000 </r>
       <r>    2.8852    1.0000 </r>
       <r>    2.8852    1.0000 </r>
       <r>    2.9381    1.0000 </r>
       <r>    2.9381    1.0000 </r>
       <r>    7.1969    0.0000 </r>
       <r>    7.1969    0.0000 </r>
       <r>   11.1817    0.0000 </r>
       <r>   11.1817    0.0000 </r>
      </set>
      <set comment="kpoint 15">
       <r>  -11.4784    1.0000 </r>
       <r>  -11.4784    1.0000 </r>
       <r>   -0.7302    1.0000 </r>
       <r>   -0.7302    1.0000 </r>
       <r>    2.6900    1.0000 </r>
       <r>    2.6900    1.0000 </r>
       <r>    2.8857    1.0000 </r>
       <r>    2.8857    1.0000 </r>
       <r>    7.3688    0.0000 </r>
       <r>    7.3688    0.0000 </r>
       <r>   11.0374    0.0000 </r>
       <r>   11.0374    0.0000 </r>
      </set>
      <set comment="kpoint 16">
       <r>  -11.4159    1.0000 </r>
       <r>  -11.4159    1.0000 </r>
       <r>   -0.7449    1.0000 </r>
       <r>   -0.7449    1.0000 </r>
       <r>    2.4103    1.0000 </r>
       <r>    2.4103    1.0000 </r>
       <r>    2.8023    1.0000 </r>
       <r>    2.8023    1.0000 </r>
       <r>    7.6061    0.0000 </r>
       <r>    7.6061    0.0000 </r>
       <r>   10.8363    0.0000 </r>
       <r>   10.8363    0.0000 </r>
      </set>
      <set comment="kpoint 17">
       <r>  -11.3295    1.0000 </r>
       <r>  -11.3295    1.0000 </r>
       <r>   -0.7807    1.0000 </r>
       <r>   -0.7807    1.0000 </r>
       <r>    2.0922    1.0000 </r>
       <r>    2.0922    1.0000 </r>
       <r>    2.6933    1.0000 </r>
       <r>    2.6933    1.0000 </r>
       <r>    7.8556    0.0000 </r>
       <r>    7.8556    0.0000 </r>
       <r>   10.6245    0.0000 </r>
       <r>   10.6245    0.0000 </r>
      </set>
      <set comment="kpoint 18">
       <r>  -11.2203    1.0000 </r>
       <r>  -11.2203    1.0000 </r>
       <r>   -0.8546    1.0000 </r>
       <r>   -0.8546    1.0000 </r>
       <r>    1.7804    1.0000 </r>
       <r>    1.7804    1.0000 </r>
       <r>    2.5648    1.0000 </r>
       <r>    2.5648    1.0000 </r>
       <r>    8.0609    0.0000 </r>
       <r>    8.0609    0.0000 </r>
       <r>   10.4532    0.0000 </r>
       <r>   10.4532    0.0000 </r>
      </set>
      <set comment="kpoint 19">
       <r>  -11.0900    1.0000 </r>
       <r>  -11.0900    1.0000 </r>
       <r>   -0.9875    1.0000 </r>
       <r>   -0.9875    1.0000 </r>
       <r>    1.5147    1.0000 </r>
       <r>    1.5147    1.0000 </r>
       <r>    2.4236    1.0000 </r>
       <r>    2.4236    1.0000 </r>
       <r>    8.1691    0.0000 </r>
       <r>    8.1691    0.0000 </r>
       <r>   10.3676    0.0000 </r>
       <r>   10.3676    0.0000 </r>
      </set>
      <set comment="kpoint 20">
       <r>  -10.9410    1.0000 </r>
       <r>  -10.9410    1.0000 </r>
       <r>   -1.1948    1.0000 </r>
       <r>   -1.1948    1.0000 </r>
       <r>    1.3243    1.0000 </r>
       <r>    1.3243    1.0000 </r>
       <r>    2.2763    1.0000 </r>
       <r>    2.2763    1.0000 </r>
       <r>    8.1562    0.0000 </r>
       <r>    8.1562    0.0000 </r>
       <r>   10.3813    0.0000 </r>
       <r>   10.3813    0.0000 </r>
      </set>
      <set comment="kpoint 21">
       <r>  -10.7761    1.0000 </r>
       <r>  -10.7761    1.0000 </r>
       <r>   -1.4749    1.0000 </r>
       <r>   -1.4749    1.0000 </r>
       <r>    1.2179    1.0000 </r>
       <r>    1.2179    1.0000 </r>
       <r>    2.1289    1.0000 </r>
       <r>    2.1289    1.0000 </r>
       <r>    8.0448    0.0000 </r>
       <r>    8.0448    0.0000 </r>
       <r>   10.4587    0.0000 </r>
       <r>   10.4587    0.0000 </r>
      </set>
      <set comment="kpoint 22">
       <r>  -10.5995    1.0000 </r>
       <r>  -10.5995    1.0000 </r>
       <r>   -1.8078    1.0000 </r>
       <r>   -1.8078    1.0000 </r>
       <r>    1.1835    1.0000 </r>
       <r>    1.1835    1.0000 </r>
       <r>    1.9869    1.0000 </r>
       <r>    1.9869    1.0000 </r>
       <r>    7.8789    0.0000 </r>
       <r>    7.8789    0.0000 </r>
       <r>   10.5449    0.0000 </r>
       <r>   10.5449    0.0000 </r>
      </set>
      <set comment="kpoint 23">
       <r>  -10.4166    1.0000 </r>
       <r>  -10.4165    1.0000 </r>
       <r>   -2.1656    1.0000 </r>
       <r>   -2.1656    1.0000 </r>
       <r>    1.2000    1.0000 </r>
       <r>    1.2000    1.0000 </r>
       <r>    1.8550    1.0000 </r>
       <r>    1.8550    1.0000 </r>
       <r>    7.6949    0.0000 </r>
       <r>    7.6949    0.0000 </r>
       <r>   10.6005    0.0000 </r>
       <r>   10.6005    0.0000 </r>
      </set>
      <set comment="kpoint 24">
       <r>  -10.2340    1.0000 </r>
       <r>  -10.2340    1.0000 </r>
       <r>   -2.5213    1.0000 </r>
       <r>   -2.5213    1.0000 </r>
       <r>    1.2469    1.0000 </r>
       <r>    1.2469    1.0000 </r>
       <r>    1.7371    1.0000 </r>
       <r>    1.7371    1.0000 </r>
       <r>    7.5158    0.0000 </r>
       <r>    7.5158    0.0000 </r>
       <r>   10.6131    0.0000 </r>
       <r>   10.6131    0.0000 </r>
      </set>
      <set comment="kpoint 25">
       <r>  -10.0609    1.0000 </r>
       <r>  -10.0609    1.0000 </r>
       <r>   -2.8514    1.0000 </r>
       <r>   -2.8514    1.0000 </r>
       <r>    1.3075    1.0000 </r>
       <r>    1.3075    1.0000 </r>
       <r>    1.6365    1.0000 </r>
       <r>    1.6365    1.0000 </r>
       <r>    7.3554    0.0000 </r>
       <r>    7.3554    0.0000 </r>
       <r>   10.5900    0.0000 </r>
       <r>   10.5900    0.0000 </r>
      </set>
      <set comment="kpoint 26">
       <r>   -9.9075    1.0000 </r>
       <r>   -9.9075    1.0000 </r>
       <r>   -3.1352    1.0000 </r>
       <r>   -3.1352    1.0000 </r>
       <r>    1.3686    1.0000 </r>
       <r>    1.3686    1.0000 </r>
       <r>    1.5557    1.0000 </r>
       <r>    1.5557    1.0000 </r>
       <r>    7.2227    0.0000 </r>
       <r>    7.2227    0.0000 </r>
       <r>   10.5483    0.0000 </r>
       <r>   10.5483    0.0000 </r>
      </set>
      <set comment="kpoint 27">
       <r>   -9.7858    1.0000 </r>
       <r>   -9.7858    1.0000 </r>
       <r>   -3.3542    1.0000 </r>
       <r>   -3.3542    1.0000 </r>
       <r>    1.4200    1.0000 </r>
       <r>    1.4200    1.0000 </r>
       <r>    1.4966    1.0000 </r>
       <r>    1.4966    1.0000 </r>
       <r>    7.1237    0.0000 </r>
       <r>    7.1237    0.0000 </r>
       <r>   10.5048    0.0000 </r>
       <r>   10.5048    0.0000 </r>
      </set>
      <set comment="kpoint 28">
       <r>   -9.7070    1.0000 </r>
       <r>   -9.7070    1.0000 </r>
       <r>   -3.4930    1.0000 </r>
       <r>   -3.4930    1.0000 </r>
       <r>    1.4540    1.0000 </r>
       <r>    1.4540    1.0000 </r>
       <r>    1.4606    1.0000 </r>
       <r>    1.4606    1.0000 </r>
       <r>    7.0625    0.0000 </r>
       <r>    7.0625    0.0000 </r>
       <r>   10.4733    0.0000 </r>
       <r>   10.4733    0.0000 </r>
      </set>
      <set comment="kpoint 29">
       <r>   -9.6796    1.0000 </r>
       <r>   -9.6796    1.0000 </r>
       <r>   -3.5405    1.0000 </r>
       <r>   -3.5405    1.0000 </r>
       <r>    1.4485    1.0000 </r>
       <r>    1.4485    1.0000 </r>
       <r>    1.4659    1.0000 </r>
       <r>    1.4659    1.0000 </r>
       <r>    7.0419    0.0000 </r>
       <r>    7.0419    0.0000 </r>
       <r>   10.4618    0.0000 </r>
       <r>   10.4618    0.0000 </r>
      </set>
      <set comment="kpoint 30">
       <r>   -9.7680    1.0000 </r>
       <r>   -9.5917    1.0000 </r>
       <r>   -3.6373    1.0000 </r>
       <r>   -3.3999    1.0000 </r>
       <r>    1.1401    1.0000 </r>
       <r>    1.2771    1.0000 </r>
       <r>    1.6270    1.0000 </r>
       <r>    1.7017    1.0000 </r>
       <r>    6.8400    0.0000 </r>
       <r>    7.2854    0.0000 </r>
       <r>   10.3225    0.0000 </r>
       <r>   10.6506    0.0000 </r>
      </set>
      <set comment="kpoint 31">
       <r>   -9.8532    1.0000 </r>
       <r>   -9.5083    1.0000 </r>
       <r>   -3.6870    1.0000 </r>
       <r>   -3.2211    1.0000 </r>
       <r>    0.7601    1.0000 </r>
       <r>    1.1184    1.0000 </r>
       <r>    1.8061    1.0000 </r>
       <r>    1.8150    1.0000 </r>
       <r>    6.7443    0.0000 </r>
       <r>    7.4974    0.0000 </r>
       <r>   10.3074    0.0000 </r>
       <r>   10.7732    0.0000 </r>
      </set>
      <set comment="kpoint 32">
       <r>   -9.9313    1.0000 </r>
       <r>   -9.4328    1.0000 </r>
       <r>   -3.6897    1.0000 </r>
       <r>   -3.0127    1.0000 </r>
       <r>    0.3581    1.0000 </r>
       <r>    0.9769    1.0000 </r>
       <r>    1.7940    1.0000 </r>
       <r>    1.9784    1.0000 </r>
       <r>    6.7911    0.0000 </r>
       <r>    7.6263    0.0000 </r>
       <r>   10.4486    0.0000 </r>
       <r>   10.7106    0.0000 </r>
      </set>
      <set comment="kpoint 33">
       <r>   -9.9996    1.0000 </r>
       <r>   -9.3684    1.0000 </r>
       <r>   -3.6497    1.0000 </r>
       <r>   -2.7867    1.0000 </r>
       <r>   -0.0382    1.0000 </r>
       <r>    0.8562    1.0000 </r>
       <r>    1.6595    1.0000 </r>
       <r>    2.1359    1.0000 </r>
       <r>    6.9793    0.0000 </r>
       <r>    7.6687    0.0000 </r>
       <r>   10.4514    0.0000 </r>
       <r>   10.7211    0.0000 </r>
      </set>
      <set comment="kpoint 34">
       <r>  -10.0553    1.0000 </r>
       <r>   -9.3168    1.0000 </r>
       <r>   -3.5771    1.0000 </r>
       <r>   -2.5605    1.0000 </r>
       <r>   -0.4020    1.0000 </r>
       <r>    0.7595    1.0000 </r>
       <r>    1.4591    1.0000 </r>
       <r>    2.2701    1.0000 </r>
       <r>    7.2812    0.0000 </r>
       <r>    7.6573    0.0000 </r>
       <r>   10.0683    0.0000 </r>
       <r>   11.0584    0.0000 </r>
      </set>
      <set comment="kpoint 35">
       <r>  -10.0964    1.0000 </r>
       <r>   -9.2795    1.0000 </r>
       <r>   -3.4905    1.0000 </r>
       <r>   -2.3591    1.0000 </r>
       <r>   -0.7034    1.0000 </r>
       <r>    0.6889    1.0000 </r>
       <r>    1.2512    1.0000 </r>
       <r>    2.3730    1.0000 </r>
       <r>    7.6271    0.0000 </r>
       <r>    7.6602    0.0000 </r>
       <r>    9.6250    0.0000 </r>
       <r>   11.3840    0.0000 </r>
      </set>
      <set comment="kpoint 36">
       <r>  -10.1216    1.0000 </r>
       <r>   -9.2570    1.0000 </r>
       <r>   -3.4175    1.0000 </r>
       <r>   -2.2153    1.0000 </r>
       <r>   -0.9078    1.0000 </r>
       <r>    0.6459    1.0000 </r>
       <r>    1.0938    1.0000 </r>
       <r>    2.4379    1.0000 </r>
       <r>    7.6013    0.0000 </r>
       <r>    8.0729    0.0000 </r>
       <r>    9.1728    0.0000 </r>
       <r>   11.6242    0.0000 </r>
      </set>
      <set comment="kpoint 37">
       <r>  -10.1301    1.0000 </r>
       <r>   -9.2494    1.0000 </r>
       <r>   -3.3884    1.0000 </r>
       <r>   -2.1624    1.0000 </r>
       <r>   -0.9812    1.0000 </r>
       <r>    0.6315    1.0000 </r>
       <r>    1.0348    1.0000 </r>
       <r>    2.4601    1.0000 </r>
       <r>    7.5915    0.0000 </r>
       <r>    8.3524    0.0000 </r>
       <r>    8.8802    0.0000 </r>
       <r>   11.7142    0.0000 </r>
      </set>
      <set comment="kpoint 38">
       <r>  -10.1843    1.0000 </r>
       <r>   -9.2334    1.0000 </r>
       <r>   -3.3605    1.0000 </r>
       <r>   -2.1192    1.0000 </r>
       <r>   -1.0271    1.0000 </r>
       <r>    0.6450    1.0000 </r>
       <r>    1.0964    1.0000 </r>
       <r>    2.4699    1.0000 </r>
       <r>    7.5996    0.0000 </r>
       <r>    8.3595    0.0000 </r>
       <r>    8.8973    0.0000 </r>
       <r>   11.6948    0.0000 </r>
      </set>
      <set comment="kpoint 39">
       <r>  -10.3271    1.0000 </r>
       <r>   -9.2028    1.0000 </r>
       <r>   -3.2765    1.0000 </r>
       <r>   -2.0025    1.0000 </r>
       <r>   -1.1355    1.0000 </r>
       <r>    0.6851    1.0000 </r>
       <r>    1.2611    1.0000 </r>
       <r>    2.4991    1.0000 </r>
       <r>    7.6224    0.0000 </r>
       <r>    8.3760    0.0000 </r>
       <r>    8.9530    0.0000 </r>
       <r>   11.6424    0.0000 </r>
      </set>
      <set comment="kpoint 40">
       <r>  -10.5232    1.0000 </r>
       <r>   -9.1859    1.0000 </r>
       <r>   -3.1410    1.0000 </r>
       <r>   -1.8629    1.0000 </r>
       <r>   -1.2213    1.0000 </r>
       <r>    0.7511    1.0000 </r>
       <r>    1.4889    1.0000 </r>
       <r>    2.5469    1.0000 </r>
       <r>    7.6550    0.0000 </r>
       <r>    8.3912    0.0000 </r>
       <r>    9.0558    0.0000 </r>
       <r>   11.5691    0.0000 </r>
      </set>
      <set comment="kpoint 41">
       <r>  -10.7460    1.0000 </r>
       <r>   -9.1980    1.0000 </r>
       <r>   -2.9776    1.0000 </r>
       <r>   -1.7979    1.0000 </r>
       <r>   -1.1452    1.0000 </r>
       <r>    0.8417    1.0000 </r>
       <r>    1.7456    1.0000 </r>
       <r>    2.6117    1.0000 </r>
       <r>    7.6845    0.0000 </r>
       <r>    8.4009    0.0000 </r>
       <r>    9.2111    0.0000 </r>
       <r>   11.4905    0.0000 </r>
      </set>
      <set comment="kpoint 42">
       <r>  -10.9784    1.0000 </r>
       <r>   -9.2415    1.0000 </r>
       <r>   -2.8508    1.0000 </r>
       <r>   -1.7659    1.0000 </r>
       <r>   -0.8823    1.0000 </r>
       <r>    0.9551    1.0000 </r>
       <r>    2.0080    1.0000 </r>
       <r>    2.6915    1.0000 </r>
       <r>    7.6853    0.0000 </r>
       <r>    8.4177    0.0000 </r>
       <r>    9.4152    0.0000 </r>
       <r>   11.4198    0.0000 </r>
      </set>
      <set comment="kpoint 43">
       <r>  -11.2094    1.0000 </r>
       <r>   -9.3114    1.0000 </r>
       <r>   -2.8450    1.0000 </r>
       <r>   -1.5986    1.0000 </r>
       <r>   -0.5242    1.0000 </r>
       <r>    1.0888    1.0000 </r>
       <r>    2.2613    1.0000 </r>
       <r>    2.7836    1.0000 </r>
       <r>    7.6253    0.0000 </r>
       <r>    8.4629    0.0000 </r>
       <r>    9.6563    0.0000 </r>
       <r>   11.3644    0.0000 </r>
      </set>
      <set comment="kpoint 44">
       <r>  -11.4314    1.0000 </r>
       <r>   -9.3999    1.0000 </r>
       <r>   -2.9535    1.0000 </r>
       <r>   -1.2693    1.0000 </r>
       <r>   -0.1181    1.0000 </r>
       <r>    1.2397    1.0000 </r>
       <r>    2.4959    1.0000 </r>
       <r>    2.8849    1.0000 </r>
       <r>    7.4884    0.0000 </r>
       <r>    8.5364    0.0000 </r>
       <r>    9.9151    0.0000 </r>
       <r>   11.3305    0.0000 </r>
      </set>
      <set comment="kpoint 45">
       <r>  -11.6391    1.0000 </r>
       <r>   -9.4986    1.0000 </r>
       <r>   -3.1121    1.0000 </r>
       <r>   -0.8380    1.0000 </r>
       <r>    0.3164    1.0000 </r>
       <r>    1.4040    1.0000 </r>
       <r>    2.7060    1.0000 </r>
       <r>    2.9913    1.0000 </r>
       <r>    7.2820    0.0000 </r>
       <r>    8.6020    0.0000 </r>
       <r>   10.1672    0.0000 </r>
       <r>   11.3380    0.0000 </r>
      </set>
      <set comment="kpoint 46">
       <r>  -11.8286    1.0000 </r>
       <r>   -9.6003    1.0000 </r>
       <r>   -3.2806    1.0000 </r>
       <r>   -0.3499    1.0000 </r>
       <r>    0.7679    1.0000 </r>
       <r>    1.5767    1.0000 </r>
       <r>    2.8887    1.0000 </r>
       <r>    3.0986    1.0000 </r>
       <r>    7.0209    0.0000 </r>
       <r>    8.5990    0.0000 </r>
       <r>   10.4004    0.0000 </r>
       <r>   11.4213    0.0000 </r>
      </set>
      <set comment="kpoint 47">
       <r>  -11.9972    1.0000 </r>
       <r>   -9.6986    1.0000 </r>
       <r>   -3.4410    1.0000 </r>
       <r>    0.1677    1.0000 </r>
       <r>    1.2283    1.0000 </r>
       <r>    1.7522    1.0000 </r>
       <r>    3.0430    1.0000 </r>
       <r>    3.2020    1.0000 </r>
       <r>    6.7180    0.0000 </r>
       <r>    8.4749    0.0000 </r>
       <r>   10.6441    0.0000 </r>
       <r>   11.5840    0.0000 </r>
      </set>
      <set comment="kpoint 48">
       <r>  -12.1426    1.0000 </r>
       <r>   -9.7887    1.0000 </r>
       <r>   -3.5842    1.0000 </r>
       <r>    0.6933    1.0000 </r>
       <r>    1.6908    1.0000 </r>
       <r>    1.9237    1.0000 </r>
       <r>    3.1696    1.0000 </r>
       <r>    3.2969    1.0000 </r>
       <r>    6.3830    0.0000 </r>
       <r>    8.2276    0.0000 </r>
       <r>   10.9392    0.0000 </r>
       <r>   11.7778    0.0000 </r>
      </set>
      <set comment="kpoint 49">
       <r>  -12.2632    1.0000 </r>
       <r>   -9.8668    1.0000 </r>
       <r>   -3.7055    1.0000 </r>
       <r>    1.2046    1.0000 </r>
       <r>    2.0830    1.0000 </r>
       <r>    2.1494    1.0000 </r>
       <r>    3.2698    1.0000 </r>
       <r>    3.3788    1.0000 </r>
       <r>    6.0246    0.0000 </r>
       <r>    7.9013    0.0000 </r>
       <r>   11.2881    0.0000 </r>
       <r>   11.9524    0.0000 </r>
      </set>
      <set comment="kpoint 50">
       <r>  -12.3582    1.0000 </r>
       <r>   -9.9301    1.0000 </r>
       <r>   -3.8020    1.0000 </r>
       <r>    1.6740    1.0000 </r>
       <r>    2.2215    1.0000 </r>
       <r>    2.5964    1.0000 </r>
       <r>    3.3455    1.0000 </r>
       <r>    3.4444    1.0000 </r>
       <r>    5.6524    0.0000 </r>
       <r>    7.5530    0.0000 </r>
       <r>   11.6603    0.0000 </r>
       <r>   12.0866    0.0000 </r>
      </set>
      <set comment="kpoint 51">
       <r>  -12.4265    1.0000 </r>
       <r>   -9.9767    1.0000 </r>
       <r>   -3.8720    1.0000 </r>
       <r>    2.0641    1.0000 </r>
       <r>    2.3297    1.0000 </r>
       <r>    3.0176    1.0000 </r>
       <r>    3.3982    1.0000 </r>
       <r>    3.4915    1.0000 </r>
       <r>    5.2834    0.0000 </r>
       <r>    7.2394    0.0000 </r>
       <r>   12.0027    0.0000 </r>
       <r>   12.1841    0.0000 </r>
      </set>
      <set comment="kpoint 52">
       <r>  -12.4677    1.0000 </r>
       <r>  -10.0050    1.0000 </r>
       <r>   -3.9144    1.0000 </r>
       <r>    2.3284    1.0000 </r>
       <r>    2.3989    1.0000 </r>
       <r>    3.3703    1.0000 </r>
       <r>    3.4295    1.0000 </r>
       <r>    3.5195    1.0000 </r>
       <r>    4.9622    0.0000 </r>
       <r>    7.0169    0.0000 </r>
       <r>   12.1961    0.0000 </r>
       <r>   12.3043    0.0000 </r>
      </set>
      <set comment="kpoint 53">
       <r>  -12.4815    1.0000 </r>
       <r>  -10.0146    1.0000 </r>
       <r>   -3.9286    1.0000 </r>
       <r>    2.4228    1.0000 </r>
       <r>    2.4228    1.0000 </r>
       <r>    3.4397    1.0000 </r>
       <r>    3.5288    1.0000 </r>
       <r>    3.5288    1.0000 </r>
       <r>    4.8144    0.0000 </r>
       <r>    6.9356    0.0000 </r>
       <r>   12.2266    0.0000 </r>
       <r>   12.3874    0.0000 </r>
      </set>
      <set comment="kpoint 54">
       <r>  -12.4658    1.0000 </r>
       <r>  -10.0558    1.0000 </r>
       <r>   -3.8587    1.0000 </r>
       <r>    2.4327    1.0000 </r>
       <r>    2.4327    1.0000 </r>
       <r>    3.2435    1.0000 </r>
       <r>    3.5174    1.0000 </r>
       <r>    3.5174    1.0000 </r>
       <r>    4.9875    0.0000 </r>
       <r>    6.9457    0.0000 </r>
       <r>   12.1942    0.0000 </r>
       <r>   12.3921    0.0000 </r>
      </set>
      <set comment="kpoint 55">
       <r>  -12.4189    1.0000 </r>
       <r>  -10.1730    1.0000 </r>
       <r>   -3.6559    1.0000 </r>
       <r>    2.4620    1.0000 </r>
       <r>    2.4620    1.0000 </r>
       <r>    2.8086    1.0000 </r>
       <r>    3.4839    1.0000 </r>
       <r>    3.4839    1.0000 </r>
       <r>    5.3523    0.0000 </r>
       <r>    6.9750    0.0000 </r>
       <r>   12.0992    0.0000 </r>
       <r>   12.4077    0.0000 </r>
      </set>
      <set comment="kpoint 56">
       <r>  -12.3411    1.0000 </r>
       <r>  -10.3501    1.0000 </r>
       <r>   -3.3374    1.0000 </r>
       <r>    2.2818    1.0000 </r>
       <r>    2.5099    1.0000 </r>
       <r>    2.5099    1.0000 </r>
       <r>    3.4296    1.0000 </r>
       <r>    3.4296    1.0000 </r>
       <r>    5.7581    0.0000 </r>
       <r>    7.0206    0.0000 </r>
       <r>   11.9552    0.0000 </r>
       <r>   12.4411    0.0000 </r>
      </set>
      <set comment="kpoint 57">
       <r>  -12.2333    1.0000 </r>
       <r>  -10.5679    1.0000 </r>
       <r>   -2.9250    1.0000 </r>
       <r>    1.7115    1.0000 </r>
       <r>    2.5749    1.0000 </r>
       <r>    2.5749    1.0000 </r>
       <r>    3.3570    1.0000 </r>
       <r>    3.3570    1.0000 </r>
       <r>    6.1501    0.0000 </r>
       <r>    7.0768    0.0000 </r>
       <r>   11.7773    0.0000 </r>
       <r>   12.0827    0.0000 </r>
      </set>
      <set comment="kpoint 58">
       <r>  -12.0964    1.0000 </r>
       <r>  -10.8078    1.0000 </r>
       <r>   -2.4401    1.0000 </r>
       <r>    1.1158    1.0000 </r>
       <r>    2.6549    1.0000 </r>
       <r>    2.6549    1.0000 </r>
       <r>    3.2693    1.0000 </r>
       <r>    3.2693    1.0000 </r>
       <r>    6.5016    0.0000 </r>
       <r>    7.1337    0.0000 </r>
       <r>   11.5873    0.0000 </r>
       <r>   11.7303    0.0000 </r>
      </set>
      <set comment="kpoint 59">
       <r>  -11.9317    1.0000 </r>
       <r>  -11.0549    1.0000 </r>
       <r>   -1.9015    1.0000 </r>
       <r>    0.5055    1.0000 </r>
       <r>    2.7472    1.0000 </r>
       <r>    2.7472    1.0000 </r>
       <r>    3.1704    1.0000 </r>
       <r>    3.1704    1.0000 </r>
       <r>    6.7922    0.0000 </r>
       <r>    7.1764    0.0000 </r>
       <r>   11.4125    0.0000 </r>
       <r>   11.4575    0.0000 </r>
      </set>
      <set comment="kpoint 60">
       <r>  -11.7415    1.0000 </r>
       <r>  -11.2981    1.0000 </r>
       <r>   -1.3252    1.0000 </r>
       <r>   -0.1109    1.0000 </r>
       <r>    2.8488    1.0000 </r>
       <r>    2.8488    1.0000 </r>
       <r>    3.0645    1.0000 </r>
       <r>    3.0645    1.0000 </r>
       <r>    7.0053    0.0000 </r>
       <r>    7.1843    0.0000 </r>
       <r>   11.2840    0.0000 </r>
       <r>   11.2889    0.0000 </r>
      </set>
      <set comment="kpoint 61">
       <r>  -11.5289    1.0000 </r>
       <r>  -11.5289    1.0000 </r>
       <r>   -0.7245    1.0000 </r>
       <r>   -0.7245    1.0000 </r>
       <r>    2.9559    1.0000 </r>
       <r>    2.9559    1.0000 </r>
       <r>    2.9559    1.0000 </r>
       <r>    2.9559    1.0000 </r>
       <r>    7.1336    0.0000 </r>
       <r>    7.1337    0.0000 </r>
       <r>   11.2343    0.0000 </r>
       <r>   11.2343    0.0000 </r>
      </set>
      <set comment="kpoint 62">
       <r>  -11.5170    1.0000 </r>
       <r>  -11.5170    1.0000 </r>
       <r>   -0.7254    1.0000 </r>
       <r>   -0.7254    1.0000 </r>
       <r>    2.8893    1.0000 </r>
       <r>    2.8893    1.0000 </r>
       <r>    2.9391    1.0000 </r>
       <r>    2.9391    1.0000 </r>
       <r>    7.1932    0.0000 </r>
       <r>    7.1932    0.0000 </r>
       <r>   11.1847    0.0000 </r>
       <r>   11.1848    0.0000 </r>
      </set>
      <set comment="kpoint 63">
       <r>  -11.4814    1.0000 </r>
       <r>  -11.4814    1.0000 </r>
       <r>   -0.7297    1.0000 </r>
       <r>   -0.7297    1.0000 </r>
       <r>    2.7047    1.0000 </r>
       <r>    2.7047    1.0000 </r>
       <r>    2.8898    1.0000 </r>
       <r>    2.8898    1.0000 </r>
       <r>    7.3560    0.0000 </r>
       <r>    7.3560    0.0000 </r>
       <r>   11.0482    0.0000 </r>
       <r>   11.0482    0.0000 </r>
      </set>
      <set comment="kpoint 64">
       <r>  -11.4226    1.0000 </r>
       <r>  -11.4226    1.0000 </r>
       <r>   -0.7429    1.0000 </r>
       <r>   -0.7429    1.0000 </r>
       <r>    2.4380    1.0000 </r>
       <r>    2.4380    1.0000 </r>
       <r>    2.8111    1.0000 </r>
       <r>    2.8111    1.0000 </r>
       <r>    7.5832    0.0000 </r>
       <r>    7.5832    0.0000 </r>
       <r>   10.8557    0.0000 </r>
       <r>   10.8558    0.0000 </r>
      </set>
      <set comment="kpoint 65">
       <r>  -11.3412    1.0000 </r>
       <r>  -11.3412    1.0000 </r>
       <r>   -0.7747    1.0000 </r>
       <r>   -0.7747    1.0000 </r>
       <r>    2.1313    1.0000 </r>
       <r>    2.1313    1.0000 </r>
       <r>    2.7077    1.0000 </r>
       <r>    2.7077    1.0000 </r>
       <r>    7.8266    0.0000 </r>
       <r>    7.8266    0.0000 </r>
       <r>   10.6491    0.0000 </r>
       <r>   10.6491    0.0000 </r>
      </set>
      <set comment="kpoint 66">
       <r>  -11.2382    1.0000 </r>
       <r>  -11.2382    1.0000 </r>
       <r>   -0.8402    1.0000 </r>
       <r>   -0.8401    1.0000 </r>
       <r>    1.8256    1.0000 </r>
       <r>    1.8256    1.0000 </r>
       <r>    2.5853    1.0000 </r>
       <r>    2.5853    1.0000 </r>
       <r>    8.0349    0.0000 </r>
       <r>    8.0349    0.0000 </r>
       <r>   10.4746    0.0000 </r>
       <r>   10.4746    0.0000 </r>
      </set>
      <set comment="kpoint 67">
       <r>  -11.1152    1.0000 </r>
       <r>  -11.1152    1.0000 </r>
       <r>   -0.9581    1.0000 </r>
       <r>   -0.9581    1.0000 </r>
       <r>    1.5580    1.0000 </r>
       <r>    1.5580    1.0000 </r>
       <r>    2.4499    1.0000 </r>
       <r>    2.4499    1.0000 </r>
       <r>    8.1583    0.0000 </r>
       <r>    8.1583    0.0000 </r>
       <r>   10.3754    0.0000 </r>
       <r>   10.3755    0.0000 </r>
      </set>
      <set comment="kpoint 68">
       <r>  -10.9741    1.0000 </r>
       <r>  -10.9740    1.0000 </r>
       <r>   -1.1444    1.0000 </r>
       <r>   -1.1444    1.0000 </r>
       <r>    1.3576    1.0000 </r>
       <r>    1.3576    1.0000 </r>
       <r>    2.3077    1.0000 </r>
       <r>    2.3077    1.0000 </r>
       <r>    8.1685    0.0000 </r>
       <r>    8.1685    0.0000 </r>
       <r>   10.3712    0.0000 </r>
       <r>   10.3712    0.0000 </r>
      </set>
      <set comment="kpoint 69">
       <r>  -10.8174    1.0000 </r>
       <r>  -10.8174    1.0000 </r>
       <r>   -1.4011    1.0000 </r>
       <r>   -1.4011    1.0000 </r>
       <r>    1.2364    1.0000 </r>
       <r>    1.2364    1.0000 </r>
       <r>    2.1643    1.0000 </r>
       <r>    2.1643    1.0000 </r>
       <r>    8.0784    0.0000 </r>
       <r>    8.0785    0.0000 </r>
       <r>   10.4371    0.0000 </r>
       <r>   10.4371    0.0000 </r>
      </set>
      <set comment="kpoint 70">
       <r>  -10.6486    1.0000 </r>
       <r>  -10.6486    1.0000 </r>
       <r>   -1.7133    1.0000 </r>
       <r>   -1.7133    1.0000 </r>
       <r>    1.1869    1.0000 </r>
       <r>    1.1869    1.0000 </r>
       <r>    2.0248    1.0000 </r>
       <r>    2.0248    1.0000 </r>
       <r>    7.9272    0.0000 </r>
       <r>    7.9272    0.0000 </r>
       <r>   10.5232    0.0000 </r>
       <r>   10.5232    0.0000 </r>
      </set>
      <set comment="kpoint 71">
       <r>  -10.4723    1.0000 </r>
       <r>  -10.4723    1.0000 </r>
       <r>   -2.0562    1.0000 </r>
       <r>   -2.0562    1.0000 </r>
       <r>    1.1909    1.0000 </r>
       <r>    1.1909    1.0000 </r>
       <r>    1.8937    1.0000 </r>
       <r>    1.8937    1.0000 </r>
       <r>    7.7510    0.0000 </r>
       <r>    7.7510    0.0000 </r>
       <r>   10.5881    0.0000 </r>
       <r>   10.5881    0.0000 </r>
      </set>
      <set comment="kpoint 72">
       <r>  -10.2943    1.0000 </r>
       <r>  -10.2943    1.0000 </r>
       <r>   -2.4045    1.0000 </r>
       <r>   -2.4045    1.0000 </r>
       <r>    1.2290    1.0000 </r>
       <r>    1.2290    1.0000 </r>
       <r>    1.7746    1.0000 </r>
       <r>    1.7747    1.0000 </r>
       <r>    7.5740    0.0000 </r>
       <r>    7.5740    0.0000 </r>
       <r>   10.6135    0.0000 </r>
       <r>   10.6135    0.0000 </r>
      </set>
     </set>
    </set>
   </array>
  </eigenvalues>
  <separator name="orbital magnetization" >
   <v name="MAGDIPOLOUT">      0.00000000      0.00000000      0.00000000</v>
  </separator>
  <dos>
   <i name="efermi">      3.64639266 </i>
   <total>
    <array>
     <dimension dim="1">gridpoints</dimension>
     <dimension dim="2">spin</dimension>
     <field>energy</field>
     <field>total</field>
     <field>integrated</field>
     <set>
      <set comment="spin 1">
       <r>   -13.7639     0.0000     0.0000 </r>
       <r>   -13.6699     0.0000     0.0000 </r>
       <r>   -13.5758     0.0000     0.0000 </r>
       <r>   -13.4818     0.0000     0.0000 </r>
       <r>   -13.3877     0.0000     0.0000 </r>
       <r>   -13.2937     0.0000     0.0000 </r>
       <r>   -13.1996     0.0000     0.0000 </r>
       <r>   -13.1056     0.0000     0.0000 </r>
       <r>   -13.0116     0.0000     0.0000 </r>
       <r>   -12.9175     0.0000     0.0000 </r>
       <r>   -12.8235     0.0000     0.0000 </r>
       <r>   -12.7294     0.0000     0.0000 </r>
       <r>   -12.6354     0.0000     0.0000 </r>
       <r>   -12.5413     0.0000     0.0000 </r>
       <r>   -12.4473     1.1206     0.1054 </r>
       <r>   -12.3532     0.0000     0.1250 </r>
       <r>   -12.2592     7.9743     0.8750 </r>
       <r>   -12.1651     0.0000     0.8750 </r>
       <r>   -12.0711     0.0000     0.8750 </r>
       <r>   -11.9770     6.2187     1.4598 </r>
       <r>   -11.8830     0.0000     1.6250 </r>
       <r>   -11.7890     3.9873     2.0000 </r>
       <r>   -11.6949     0.0000     2.0000 </r>
       <r>   -11.6009     0.0000     2.0000 </r>
       <r>   -11.5068     0.0000     2.0000 </r>
       <r>   -11.4128     0.0000     2.0000 </r>
       <r>   -11.3187     0.0000     2.0000 </r>
       <r>   -11.2247     0.0000     2.0000 </r>
       <r>   -11.1306     0.0000     2.0000 </r>
       <r>   -11.0366     0.0000     2.0000 </r>
       <r>   -10.9425     0.0000     2.0000 </r>
       <r>   -10.8485     0.0000     2.0000 </r>
       <r>   -10.7544     0.0000     2.0000 </r>
       <r>   -10.6604     0.0000     2.0000 </r>
       <r>   -10.5664     0.0000     2.0000 </r>
       <r>   -10.4723     0.0000     2.0000 </r>
       <r>   -10.3783     0.0000     2.0000 </r>
       <r>   -10.2842     0.0000     2.0000 </r>
       <r>   -10.1902     0.0000     2.0000 </r>
       <r>   -10.0961     0.3206     2.0302 </r>
       <r>   -10.0021     1.3150     2.1549 </r>
       <r>    -9.9080     4.5774     2.7430 </r>
       <r>    -9.8140     0.0001     2.8750 </r>
       <r>    -9.7199     4.8201     3.3283 </r>
       <r>    -9.6259     4.6068     3.8720 </r>
       <r>    -9.5318     0.9750     4.0000 </r>
       <r>    -9.4378     0.0000     4.0000 </r>
       <r>    -9.3438     0.0000     4.0000 </r>
       <r>    -9.2497     0.0000     4.0000 </r>
       <r>    -9.1557     0.0000     4.0000 </r>
       <r>    -9.0616     0.0000     4.0000 </r>
       <r>    -8.9676     0.0000     4.0000 </r>
       <r>    -8.8735     0.0000     4.0000 </r>
       <r>    -8.7795     0.0000     4.0000 </r>
       <r>    -8.6854     0.0000     4.0000 </r>
       <r>    -8.5914     0.0000     4.0000 </r>
       <r>    -8.4973     0.0000     4.0000 </r>
       <r>    -8.4033     0.0000     4.0000 </r>
       <r>    -8.3092     0.0000     4.0000 </r>
       <r>    -8.2152     0.0000     4.0000 </r>
       <r>    -8.1211     0.0000     4.0000 </r>
       <r>    -8.0271     0.0000     4.0000 </r>
       <r>    -7.9331     0.0000     4.0000 </r>
       <r>    -7.8390     0.0000     4.0000 </r>
       <r>    -7.7450     0.0000     4.0000 </r>
       <r>    -7.6509     0.0000     4.0000 </r>
       <r>    -7.5569     0.0000     4.0000 </r>
       <r>    -7.4628     0.0000     4.0000 </r>
       <r>    -7.3688     0.0000     4.0000 </r>
       <r>    -7.2747     0.0000     4.0000 </r>
       <r>    -7.1807     0.0000     4.0000 </r>
       <r>    -7.0866     0.0000     4.0000 </r>
       <r>    -6.9926     0.0000     4.0000 </r>
       <r>    -6.8985     0.0000     4.0000 </r>
       <r>    -6.8045     0.0000     4.0000 </r>
       <r>    -6.7105     0.0000     4.0000 </r>
       <r>    -6.6164     0.0000     4.0000 </r>
       <r>    -6.5224     0.0000     4.0000 </r>
       <r>    -6.4283     0.0000     4.0000 </r>
       <r>    -6.3343     0.0000     4.0000 </r>
       <r>    -6.2402     0.0000     4.0000 </r>
       <r>    -6.1462     0.0000     4.0000 </r>
       <r>    -6.0521     0.0000     4.0000 </r>
       <r>    -5.9581     0.0000     4.0000 </r>
       <r>    -5.8640     0.0000     4.0000 </r>
       <r>    -5.7700     0.0000     4.0000 </r>
       <r>    -5.6759     0.0000     4.0000 </r>
       <r>    -5.5819     0.0000     4.0000 </r>
       <r>    -5.4879     0.0000     4.0000 </r>
       <r>    -5.3938     0.0000     4.0000 </r>
       <r>    -5.2998     0.0000     4.0000 </r>
       <r>    -5.2057     0.0000     4.0000 </r>
       <r>    -5.1117     0.0000     4.0000 </r>
       <r>    -5.0176     0.0000     4.0000 </r>
       <r>    -4.9236     0.0000     4.0000 </r>
       <r>    -4.8295     0.0000     4.0000 </r>
       <r>    -4.7355     0.0000     4.0000 </r>
       <r>    -4.6414     0.0000     4.0000 </r>
       <r>    -4.5474     0.0000     4.0000 </r>
       <r>    -4.4533     0.0000     4.0000 </r>
       <r>    -4.3593     0.0000     4.0000 </r>
       <r>    -4.2653     0.0000     4.0000 </r>
       <r>    -4.1712     0.0000     4.0000 </r>
       <r>    -4.0772     0.0000     4.0000 </r>
       <r>    -3.9831     0.0000     4.0000 </r>
       <r>    -3.8891     0.6147     4.0578 </r>
       <r>    -3.7950     0.0000     4.0938 </r>
       <r>    -3.7010     6.3111     4.6873 </r>
       <r>    -3.6069     1.2914     4.8090 </r>
       <r>    -3.5129     0.0000     4.8750 </r>
       <r>    -3.4188     2.8835     5.1462 </r>
       <r>    -3.3248     0.1181     5.4486 </r>
       <r>    -3.2307     2.9904     5.9062 </r>
       <r>    -3.1367     0.9968     6.0000 </r>
       <r>    -3.0426     0.0000     6.0000 </r>
       <r>    -2.9486     0.0000     6.0000 </r>
       <r>    -2.8546     0.0000     6.0000 </r>
       <r>    -2.7605     0.0000     6.0000 </r>
       <r>    -2.6665     0.0000     6.0000 </r>
       <r>    -2.5724     0.0000     6.0000 </r>
       <r>    -2.4784     0.0000     6.0000 </r>
       <r>    -2.3843     0.0000     6.0000 </r>
       <r>    -2.2903     0.0000     6.0000 </r>
       <r>    -2.1962     0.0000     6.0000 </r>
       <r>    -2.1022     0.0000     6.0000 </r>
       <r>    -2.0081     0.0000     6.0000 </r>
       <r>    -1.9141     0.0000     6.0000 </r>
       <r>    -1.8200     0.0000     6.0000 </r>
       <r>    -1.7260     0.0000     6.0000 </r>
       <r>    -1.6320     0.0000     6.0000 </r>
       <r>    -1.5379     0.0000     6.0000 </r>
       <r>    -1.4439     0.0000     6.0000 </r>
       <r>    -1.3498     0.0000     6.0000 </r>
       <r>    -1.2558     0.0000     6.0000 </r>
       <r>    -1.1617     0.0000     6.0000 </r>
       <r>    -1.0677     0.0000     6.0000 </r>
       <r>    -0.9736     0.0000     6.0000 </r>
       <r>    -0.8796     0.0000     6.0000 </r>
       <r>    -0.7855     0.0000     6.0000 </r>
       <r>    -0.6915     0.0000     6.0000 </r>
       <r>    -0.5974     0.0000     6.0000 </r>
       <r>    -0.5034     0.0000     6.0000 </r>
       <r>    -0.4094     0.0000     6.0000 </r>
       <r>    -0.3153     0.0000     6.0000 </r>
       <r>    -0.2213     0.0000     6.0000 </r>
       <r>    -0.1272     0.0000     6.0000 </r>
       <r>    -0.0332     3.9765     6.3740 </r>
       <r>     0.0609     0.0000     6.3750 </r>
       <r>     0.1549     0.0000     6.3750 </r>
       <r>     0.2490     0.0000     6.3750 </r>
       <r>     0.3430     4.7391     6.8207 </r>
       <r>     0.4371     1.9936     7.1250 </r>
       <r>     0.5311     0.0064     7.1256 </r>
       <r>     0.6252     3.9551     7.4976 </r>
       <r>     0.7192     0.0000     7.5000 </r>
       <r>     0.8132     0.0000     7.5000 </r>
       <r>     0.9073     0.0000     7.5000 </r>
       <r>     1.0013     2.2745     7.7139 </r>
       <r>     1.0954     1.9935     8.2500 </r>
       <r>     1.1894     0.0000     8.2500 </r>
       <r>     1.2835     0.0000     8.2500 </r>
       <r>     1.3775     0.0000     8.2500 </r>
       <r>     1.4716     0.0000     8.2500 </r>
       <r>     1.5656     7.9744     9.0000 </r>
       <r>     1.6597     3.9874     9.3750 </r>
       <r>     1.7537     0.0000     9.3750 </r>
       <r>     1.8478     2.3205     9.5932 </r>
       <r>     1.9418     1.9787    10.1250 </r>
       <r>     2.0359     2.0073    10.3138 </r>
       <r>     2.1299     1.9687    10.8750 </r>
       <r>     2.2239     0.0000    10.8750 </r>
       <r>     2.3180     0.0000    10.8750 </r>
       <r>     2.4120     2.0490    11.0677 </r>
       <r>     2.5061     7.8324    11.8628 </r>
       <r>     2.6001     0.0000    11.8750 </r>
       <r>     2.6942     0.0000    11.8750 </r>
       <r>     2.7882     0.0000    11.8750 </r>
       <r>     2.8823     0.4216    11.9147 </r>
       <r>     2.9763     6.9779    12.6250 </r>
       <r>     3.0704     9.8440    13.5508 </r>
       <r>     3.1644     5.9584    14.1562 </r>
       <r>     3.2585     1.2615    14.2749 </r>
       <r>     3.3525     6.7479    14.9784 </r>
       <r>     3.4465     6.2585    15.7448 </r>
       <r>     3.5406     2.6204    15.9964 </r>
       <r>     3.6346     0.0000    16.0000 </r>
       <r>     3.7287     0.0000    16.0000 </r>
       <r>     3.8227     0.0000    16.0000 </r>
       <r>     3.9168     0.0000    16.0000 </r>
       <r>     4.0108     0.0000    16.0000 </r>
       <r>     4.1049     0.0000    16.0000 </r>
       <r>     4.1989     0.0000    16.0000 </r>
       <r>     4.2930     0.0000    16.0000 </r>
       <r>     4.3870     0.0000    16.0000 </r>
       <r>     4.4811     0.0000    16.0000 </r>
       <r>     4.5751     0.0000    16.0000 </r>
       <r>     4.6691     0.0000    16.0000 </r>
       <r>     4.7632     0.0000    16.0000 </r>
       <r>     4.8572     0.3323    16.0312 </r>
       <r>     4.9513     0.6646    16.0937 </r>
       <r>     5.0453     0.0000    16.0938 </r>
       <r>     5.1394     0.0000    16.0938 </r>
       <r>     5.2334     0.3323    16.1250 </r>
       <r>     5.3275     0.0000    16.1250 </r>
       <r>     5.4215     0.0000    16.1250 </r>
       <r>     5.5156     0.0000    16.1250 </r>
       <r>     5.6096     0.0000    16.1250 </r>
       <r>     5.7037     0.0000    16.1250 </r>
       <r>     5.7977     0.0011    16.1251 </r>
       <r>     5.8917     5.9799    16.6875 </r>
       <r>     5.9858     1.4721    16.8260 </r>
       <r>     6.0798     0.0000    16.8750 </r>
       <r>     6.1739     0.0000    16.8750 </r>
       <r>     6.2679     0.0000    16.8750 </r>
       <r>     6.3620     0.0000    16.8750 </r>
       <r>     6.4560     0.0000    16.8750 </r>
       <r>     6.5501     0.0000    16.8750 </r>
       <r>     6.6441     0.0000    16.8750 </r>
       <r>     6.7382     0.0228    16.8771 </r>
       <r>     6.8322     7.8365    17.6141 </r>
       <r>     6.9263     0.0414    17.6289 </r>
       <r>     7.0203     0.9864    17.7500 </r>
       <r>     7.1143     3.3213    18.0624 </r>
       <r>     7.2084     0.0000    18.1250 </r>
       <r>     7.3024     0.0000    18.1250 </r>
       <r>     7.3965     0.0000    18.1250 </r>
       <r>     7.4905     0.0000    18.1250 </r>
       <r>     7.5846     0.0000    18.1250 </r>
       <r>     7.6786     0.0000    18.1250 </r>
       <r>     7.7727     7.9748    18.8750 </r>
       <r>     7.8667     0.0000    18.8750 </r>
       <r>     7.9608     0.0000    18.8750 </r>
       <r>     8.0548     0.0000    18.8750 </r>
       <r>     8.1489     0.0000    18.8750 </r>
       <r>     8.2429     0.0000    18.8750 </r>
       <r>     8.3370     0.0000    18.8750 </r>
       <r>     8.4310     0.0000    18.8750 </r>
       <r>     8.5250     0.0000    18.8750 </r>
       <r>     8.6191     0.0413    18.8789 </r>
       <r>     8.7131     7.9335    19.6250 </r>
       <r>     8.8072     0.0000    19.6250 </r>
       <r>     8.9012     0.0009    19.6251 </r>
       <r>     8.9953     3.9865    20.0000 </r>
       <r>     9.0893     0.0000    20.0000 </r>
       <r>     9.1834     0.0000    20.0000 </r>
       <r>     9.2774     0.0000    20.0000 </r>
       <r>     9.3715     0.0000    20.0000 </r>
       <r>     9.4655     0.0000    20.0000 </r>
       <r>     9.5596     0.0000    20.0000 </r>
       <r>     9.6536     0.0000    20.0000 </r>
       <r>     9.7476     0.0000    20.0000 </r>
       <r>     9.8417     0.0000    20.0000 </r>
       <r>     9.9357     0.0000    20.0000 </r>
       <r>    10.0298     0.0000    20.0000 </r>
       <r>    10.1238     0.0000    20.0000 </r>
       <r>    10.2179     0.0000    20.0000 </r>
       <r>    10.3119     0.0000    20.0000 </r>
       <r>    10.4060     0.0000    20.0000 </r>
       <r>    10.5000     0.0007    20.0001 </r>
       <r>    10.5941     3.9867    20.3750 </r>
       <r>    10.6881     0.0000    20.3750 </r>
       <r>    10.7822     7.8506    21.1133 </r>
       <r>    10.8762     0.0000    21.1250 </r>
       <r>    10.9702     1.0441    21.2232 </r>
       <r>    11.0643     0.9968    21.5000 </r>
       <r>    11.1583     1.3648    21.6284 </r>
       <r>    11.2524     5.3480    22.1905 </r>
       <r>    11.3464     0.0000    22.2500 </r>
       <r>    11.4405     0.0000    22.2500 </r>
       <r>    11.5345     0.0000    22.2500 </r>
       <r>    11.6286     7.9748    23.0000 </r>
       <r>    11.7226     0.0000    23.0000 </r>
       <r>    11.8167     1.9903    23.1872 </r>
       <r>    11.9107     5.9679    23.7488 </r>
       <r>    12.0048     0.0000    23.7500 </r>
       <r>    12.0988     0.0000    23.7500 </r>
       <r>    12.1928     0.3598    23.7838 </r>
       <r>    12.2869     0.3323    23.8750 </r>
       <r>    12.3809     0.0598    23.8806 </r>
       <r>    12.4750     0.0000    23.9062 </r>
       <r>    12.5690     0.0000    23.9062 </r>
       <r>    12.6631     0.0000    23.9062 </r>
       <r>    12.7571     0.0000    23.9062 </r>
       <r>    12.8512     0.0000    23.9062 </r>
       <r>    12.9452     0.0000    23.9063 </r>
       <r>    13.0393     0.3323    23.9375 </r>
       <r>    13.1333     0.0000    23.9375 </r>
       <r>    13.2274     0.6646    24.0000 </r>
       <r>    13.3214     0.0000    24.0000 </r>
       <r>    13.4155     0.0000    24.0000 </r>
       <r>    13.5095     0.0000    24.0000 </r>
       <r>    13.6035     0.0000    24.0000 </r>
       <r>    13.6976     0.0000    24.0000 </r>
       <r>    13.7916     0.0000    24.0000 </r>
       <r>    13.8857     0.0000    24.0000 </r>
       <r>    13.9797     0.0000    24.0000 </r>
       <r>    14.0738     0.0000    24.0000 </r>
       <r>    14.1678     0.0000    24.0000 </r>
       <r>    14.2619     0.0000    24.0000 </r>
       <r>    14.3559     0.0000    24.0000 </r>
       <r>    14.4500     0.0000    24.0000 </r>
      </set>
     </set>
    </array>
   </total>
  </dos>
 </calculation>
 <structure name="finalpos" >
  <crystal>
   <varray name="basis" >
    <v>       3.21629013       0.00000000       0.00000000 </v>
    <v>      -1.60814506       2.78538896       0.00000000 </v>
    <v>       0.00000000       0.00000000       5.23996246 </v>
   </varray>
   <i name="volume">     46.94282733 </i>
   <varray name="rec_basis" >
    <v>       0.31091722       0.17950814      -0.00000000 </v>
    <v>       0.00000000       0.35901629      -0.00000000 </v>
    <v>       0.00000000       0.00000000       0.19084106 </v>
   </varray>
  </crystal>
  <varray name="positions" >
   <v>       0.33333300       0.66666700       0.50088000 </v>
   <v>       0.66666700       0.33333300       0.00088000 </v>
   <v>       0.33333300       0.66666700       0.12412000 </v>
   <v>       0.66666700       0.33333300       0.62412000 </v>
  </varray>
 </structure>
</modeling>
