 running on    1 total cores
 distrk:  each k-point on    1 cores,    1 groups
 distr:  one band on    1 cores,    1 groups
 using from now: INCAR     
 vasp.5.4.1 24Jun15 (build Oct 13 2015 09:47:18) complex                        
  
 POSCAR found :  2 types and       4 ions

 ----------------------------------------------------------------------------- 
|                                                                             |
|  ADVICE TO THIS USER RUNNING 'VASP/VAMP'   (HEAR YOUR MASTER'S VOICE ...):  |
|                                                                             |
|      You enforced a specific xc-type in the INCAR file,                     |
|      a different type was found on the POTCAR file                          |
|          I HOPE YOU KNOW, WHAT YOU ARE  DOING                               |
|                                                                             |
 ----------------------------------------------------------------------------- 

 LDA part: xc-table for Pade appr. of Perdew
 found WAVECAR, reading the header
  number of k-points has changed, file:    12 present:    72
  trying to continue reading WAVECAR, but it might fail
 POSCAR, INCAR and KPOINTS ok, starting setup
 WARNING: small aliasing (wrap around) errors must be expected
 FFT: planning ...
 reading WAVECAR
 the WAVECAR file was read successfully
 initial charge from wavefunction
 entering main loop
       N       E                     dE             d eps       ncg     rms          rms(c)
DAV:   1    -0.158319015766E+02   -0.15832E+02   -0.10296E+02  2224   0.745E+01    0.591E+00
DAV:   2    -0.164103273263E+02   -0.57843E+00   -0.10038E+01  2188   0.235E+01    0.619E+00
DAV:   3    -0.163692009589E+02    0.41126E-01   -0.57782E-01  2088   0.572E+00    0.304E+00
DAV:   4    -0.163971742383E+02   -0.27973E-01   -0.21816E-01  2132   0.370E+00    0.269E+00
DAV:   5    -0.163683951435E+02    0.28779E-01   -0.66094E-02  2124   0.200E+00    0.492E-01
DAV:   6    -0.163673174906E+02    0.10777E-02   -0.10836E-02  2268   0.774E-01    0.889E-02
DAV:   7    -0.163673633434E+02   -0.45853E-04   -0.35971E-04  1860   0.171E-01
   1 F= -.16367363E+02 E0= -.16367363E+02  d E =-.156201E-63
 writing wavefunctions
