Band structure                          
           1
     3.216290    0.000000    0.000000
    -1.608145    2.785389    0.000000
     0.000000    0.000000    5.239962
   Ga   N 
   2   2
Direct configuration=     1
   0.33333300  0.66666700  0.50088000
   0.66666700  0.33333300  0.00088000
   0.33333300  0.66666700  0.12412000
   0.66666700  0.33333300  0.62412000
