Band structure                          
   1.00000000000000     
     3.880357    0.000000    0.000000
    -1.940178    3.360487    0.000000
     0.000000    0.000000    6.395361
   Ga   P 
     2     2
Direct
  0.666667  0.333333  0.499939
  0.333333  0.666667  0.999939
  0.666667  0.333333  0.874061
  0.333333  0.666667  0.374061
 
   48   48   72
  1.7670      1.7918      1.8682      2.0024      2.2051      2.4908      2.8783      3.3896      4.0492      4.8824    
  5.9141      7.1664      8.6568      10.395      12.379      14.593      16.998      19.532      22.100      24.577    
  26.833      28.739      30.187      31.090      31.397      31.090      30.187      28.739      26.833      24.577    
  22.100      19.532      16.998      14.593      12.379      10.395      8.6569      7.1665      5.9141      4.8825    
  4.0492      3.3897      2.8783      2.4908      2.2051      2.0024      1.8682      1.7918      1.7918      1.7918    
  1.8457      1.9577      2.1365      2.3946      2.7488      3.2192      3.8288      4.6024      5.5654      6.7421    
  8.1532      9.8135      11.728      13.887      16.263      18.804      21.433      24.049      26.525      28.723    
  30.509      31.770      32.422      32.422      31.770      30.509      28.723      26.525      24.049      21.433    
  18.804      16.263      13.887      11.728      9.8135      8.1532      6.7421      5.5655      4.6024      3.8288    
  3.2192      2.7488      2.3947      2.1365      1.9577      1.8457      1.8682      1.8391      1.8682      1.9577    
  2.1144      2.3488      2.6756      3.1128      3.6816      4.4054      5.3094      6.4189      7.7578      9.3456    
  11.194      13.300      15.646      18.190      20.864      23.575      26.206      28.625      30.694      32.282    
  33.282      33.624      33.282      32.282      30.694      28.625      26.206      23.575      20.864      18.190    
  15.647      13.300      11.194      9.3456      7.7578      6.4189      5.3094      4.4055      3.6816      3.1128    
  2.6756      2.3488      2.1144      1.9577      2.0024      1.9377      1.9377      2.0024      2.1365      2.3488    
  2.6519      3.0619      3.5977      4.2809      5.1355      6.1869      7.4611      8.9812      10.765      12.817    
  15.128      17.666      20.372      23.163      25.929      28.542      30.863      32.753      34.091      34.785    
  34.785      34.091      32.753      30.863      28.542      25.929      23.163      20.372      17.666      15.128    
  12.817      10.765      8.9812      7.4611      6.1870      5.1355      4.2809      3.5977      3.0619      2.6519    
  2.3488      2.1365      2.2051      2.0960      2.0604      2.0960      2.2051      2.3947      2.6756      3.0619    
  3.5705      4.2208      5.0351      6.0380      7.2559      8.7146      10.436      12.432      14.701      17.219    
  19.940      22.789      25.666      28.447      30.996      33.171      34.837      35.886      36.244      35.886    
  34.837      33.171      30.996      28.447      25.666      22.789      19.940      17.219      14.701      12.432    
  10.436      8.7146      7.2559      6.0380      5.0351      4.2208      3.5705      3.0619      2.6756      2.3947    
  2.4908      2.3264      2.2466      2.2466      2.3264      2.4908      2.7488      3.1128      3.5977      4.2208    
  5.0023      5.9654      7.1359      8.5408      10.205      12.144      14.365      16.852      19.568      22.448    
  25.403      28.318      31.061      33.489      35.463      36.859      37.582      37.582      36.859      35.463    
  33.489      31.061      28.318      25.403      22.448      19.568      16.852      14.365      12.144      10.205    
  8.5408      7.1359      5.9654      5.0023      4.2208      3.5977      3.1128      2.7488      2.8783      2.6458    
  2.5110      2.4668      2.5110      2.6458      2.8783      3.2192      3.6816      4.2809      5.0351      5.9654    
  7.0965      8.4554      10.068      11.954      14.124      16.570      19.263      22.148      25.146      28.154    
  31.046      33.685      35.929      37.646      38.725      39.093      38.725      37.646      35.929      33.685    
  31.046      28.153      25.146      22.148      19.263      16.570      14.124      11.954      10.068      8.4554    
  7.0966      5.9654      5.0351      4.2809      3.6816      3.2192      3.3897      3.0745      2.8718      2.7728    
  2.7728      2.8718      3.0745      3.3897      3.8288      4.4055      5.1355      6.0380      7.1359      8.4554    
  10.023      11.860      13.980      16.380      19.037      21.905      24.914      27.971      30.962      33.758    
  36.221      38.215      39.621      40.349      40.349      39.621      38.215      36.221      33.758      30.962    
  27.971      24.914      21.905      19.037      16.380      13.980      11.860      10.023      8.4554      7.1359    
  6.0380      5.1355      4.4055      3.8288      4.0492      3.6360      3.3509      3.1844      3.1297      3.1844    
  3.3509      3.6360      4.0492      4.6024      5.3094      6.1869      7.2559      8.5408      10.068      11.860    
  13.932      16.285      18.899      21.734      24.729      27.800      30.842      33.737      36.355      38.566    
  40.248      41.302      41.661      41.302      40.248      38.566      36.355      33.736      30.842      27.799    
  24.729      21.734      18.899      16.285      13.932      11.860      10.068      8.5408      7.2559      6.1870    
  5.3094      4.6024      4.8825      4.3555      3.9728      3.7243      3.6023      3.6023      3.7243      3.9728    
  4.3555      4.8825      5.5655      6.4189      7.4611      8.7146      10.205      11.954      13.980      16.285    
  18.852      21.646      24.610      27.667      30.720      33.662      36.372      38.729      40.619      41.940    
  42.620      42.620      41.940      40.619      38.729      36.372      33.661      30.720      27.667      24.610    
  21.646      18.852      16.285      13.980      11.954      10.205      8.7146      7.4611      6.4189      5.5655    
  5.9141      5.2584      4.7628      4.4175      4.2142      4.1471      4.2142      4.4175      4.7628      5.2584    
  5.9141      6.7421      7.7578      8.9812      10.436      12.144      14.124      16.380      18.899      21.646    
  24.570      27.595      30.632      33.579      36.326      38.762      40.780      42.284      43.207      43.518    
  43.207      42.284      40.780      38.762      36.326      33.579      30.632      27.595      24.570      21.646    
  18.899      16.380      14.124      12.144      10.436      8.9812      7.7578      6.7421      7.1665      6.3684    
  5.7462      5.2898      4.9911      4.8435      4.8435      4.9911      5.2898      5.7462      6.3684      7.1665    
  8.1532      9.3456      10.765      12.432      14.365      16.570      19.037      21.734      24.610      27.595    
  30.600      33.527      36.272      38.731      40.800      42.387      43.451      43.981      43.981      43.451    
  42.387      40.800      38.731      36.272      33.527      30.600      27.595      24.610      21.734      19.037    
  16.570      14.365      12.432      10.765      9.3456      8.1532      8.6569      7.7056      6.9456      6.3663    
  5.9595      5.7186      5.6389      5.7186      5.9595      6.3663      6.9455      7.7056      8.6568      9.8135    
  11.194      12.817      14.701      16.852      19.263      21.905      24.729      27.667      30.632      33.527    
  36.249      38.697      40.762      42.357      43.462      44.102      44.311      44.102      43.462      42.356    
  40.762      38.697      36.249      33.527      30.632      27.667      24.729      21.905      19.263      16.852    
  14.701      12.817      11.194      9.8135      10.395      9.2838      8.3791      7.6691      7.1452      6.8004    
  6.6295      6.6295      6.8004      7.1452      7.6691      8.3791      9.2838      10.395      11.728      13.300    
  15.128      17.219      19.568      22.148      24.914      27.800      30.720      33.579      36.272      38.697    
  40.740      42.305      43.387      44.040      44.341      44.341      44.040      43.387      42.305      40.740    
  38.697      36.272      33.579      30.720      27.799      24.914      22.148      19.568      17.219      15.128    
  13.300      11.728      12.379      11.108      10.057      9.2146      8.5695      8.1148      7.8445      7.7549    
  7.8445      8.1148      8.5696      9.2146      10.057      11.108      12.379      13.887      15.647      17.666    
  19.940      22.448      25.146      27.971      30.842      33.662      36.326      38.731      40.762      42.305    
  43.346      43.958      44.256      44.342      44.256      43.958      43.346      42.305      40.762      38.731    
  36.326      33.661      30.842      27.971      25.146      22.448      19.940      17.666      15.647      13.887    
  14.593      13.170      11.980      11.008      10.242      9.6737      9.2984      9.1120      9.1120      9.2984    
  9.6737      10.242      11.008      11.980      13.170      14.593      16.263      18.190      20.372      22.789    
  25.403      28.154      30.962      33.737      36.372      38.762      40.800      42.356      43.387      43.958    
  44.208      44.287      44.287      44.208      43.958      43.387      42.356      40.800      38.762      36.372    
  33.736      30.962      28.153      25.403      22.789      20.372      18.190      16.263      16.998      15.443    
  14.124      13.023      12.133      11.449      10.966      10.680      10.585      10.680      10.966      11.449    
  12.133      13.023      14.124      15.443      16.998      18.804      20.864      23.163      25.666      28.318    
  31.046      33.758      36.355      38.729      40.780      42.387      43.462      44.040      44.256      44.287    
  44.278      44.287      44.256      44.040      43.462      42.387      40.780      38.729      36.355      33.758    
  31.046      28.318      25.666      23.163      20.864      18.804      19.532      17.868      16.424      15.193    
  14.176      13.373      12.782      12.397      12.208      12.208      12.397      12.782      13.373      14.176    
  15.193      16.424      17.868      19.532      21.433      23.575      25.929      28.447      31.061      33.685    
  36.221      38.566      40.619      42.284      43.451      44.102      44.341      44.342      44.287      44.287    
  44.342      44.341      44.102      43.451      42.284      40.619      38.566      36.221      33.685      31.061    
  28.447      25.929      23.575      21.433      22.100      20.348      18.786      17.422      16.269      15.339    
  14.636      14.153      13.872      13.781      13.872      14.153      14.636      15.339      16.269      17.422    
  18.786      20.348      22.100      24.049      26.206      28.542      30.996      33.489      35.929      38.215    
  40.248      41.940      43.207      43.981      44.311      44.341      44.256      44.208      44.256      44.341    
  44.311      43.981      43.207      41.940      40.248      38.215      35.929      33.489      30.996      28.542    
  26.206      24.049      24.577      22.767      21.099      19.596      18.292      17.216      16.384      15.793    
  15.422      15.245      15.245      15.422      15.793      16.384      17.216      18.292      19.596      21.099    
  22.767      24.577      26.525      28.625      30.863      33.171      35.463      37.646      39.621      41.302    
  42.620      43.518      43.981      44.102      44.040      43.958      43.958      44.040      44.102      43.981    
  43.518      42.620      41.302      39.621      37.646      35.463      33.171      30.863      28.625      26.525    
  26.833      25.004      23.247      21.602      20.124      18.870      17.876      17.150      16.672      16.407    
  16.323      16.407      16.672      17.150      17.876      18.870      20.124      21.602      23.247      25.004    
  26.833      28.723      30.694      32.753      34.837      36.859      38.725      40.349      41.661      42.620    
  43.207      43.451      43.462      43.387      43.346      43.387      43.462      43.451      43.207      42.620    
  41.661      40.349      38.725      36.859      34.837      32.753      30.694      28.723      28.739      26.942    
  25.126      23.342      21.671      20.197      18.989      18.077      17.453      17.078      16.906      16.906    
  17.078      17.453      18.077      18.989      20.197      21.671      23.342      25.126      26.942      28.739    
  30.510      32.282      34.091      35.886      37.582      39.093      40.349      41.302      41.940      42.284    
  42.387      42.356      42.305      42.305      42.357      42.387      42.284      41.940      41.302      40.349    
  39.093      37.582      35.886      34.091      32.282      30.509      30.187      28.482      26.652      24.752    
  22.879      21.149      19.667      18.498      17.660      17.122      16.832      16.742      16.832      17.122    
  17.660      18.498      19.667      21.149      22.879      24.752      26.652      28.482      30.187      31.770    
  33.282      34.785      36.244      37.582      38.725      39.621      40.248      40.619      40.780      40.800    
  40.762      40.740      40.762      40.800      40.780      40.619      40.248      39.621      38.725      37.582    
  36.244      34.785      33.282      31.770      31.090      29.549      27.772      25.802      23.745      21.741    
  19.934      18.432      17.291      16.508      16.036      15.820      15.820      16.036      16.508      17.291    
  18.432      19.934      21.741      23.745      25.802      27.772      29.549      31.090      32.422      33.624    
  34.785      35.886      36.859      37.646      38.215      38.566      38.729      38.762      38.731      38.697    
  38.697      38.731      38.762      38.729      38.566      38.215      37.646      36.859      35.886      34.785    
  33.624      32.422      31.397      30.094      28.452      26.490      24.303      22.046      19.892      17.996    
  16.463      15.332      14.584      14.168      14.036      14.168      14.584      15.332      16.463      17.996    
  19.892      22.046      24.303      26.490      28.453      30.094      31.397      32.422      33.282      34.091    
  34.837      35.463      35.929      36.221      36.355      36.372      36.326      36.272      36.249      36.272    
  36.326      36.372      36.355      36.221      35.929      35.463      34.837      34.091      33.282      32.422    
  31.090      30.094      28.681      26.828      24.607      22.165      19.692      17.383      15.393      13.815    
  12.679      11.959      11.615      11.615      11.959      12.679      13.816      15.393      17.383      19.692    
  22.165      24.607      26.829      28.681      30.094      31.090      31.770      32.282      32.753      33.171    
  33.489      33.685      33.758      33.737      33.662      33.579      33.527      33.527      33.579      33.662    
  33.737      33.758      33.685      33.489      33.171      32.753      32.282      31.770      30.187      29.549    
  28.452      26.828      24.703      22.195      19.492      16.811      14.351      12.263      10.635      9.4938    
  8.8254      8.6063      8.8254      9.4938      10.635      12.263      14.351      16.811      19.493      22.195    
  24.703      26.829      28.453      29.549      30.187      30.510      30.694      30.863      30.996      31.061    
  31.046      30.962      30.842      30.720      30.632      30.600      30.632      30.720      30.842      30.962    
  31.046      31.061      30.996      30.863      30.694      30.509      28.739      28.482      27.772      26.490    
  24.607      22.195      19.411      16.470      13.599      10.998      8.8191      7.1523      6.0371      5.4810    
  5.4810      6.0372      7.1524      8.8192      10.998      13.599      16.471      19.412      22.195      24.607    
  26.490      27.772      28.482      28.739      28.723      28.625      28.542      28.447      28.318      28.154    
  27.971      27.800      27.667      27.595      27.595      27.667      27.800      27.971      28.154      28.318    
  28.447      28.542      28.625      28.723      26.833      26.942      26.652      25.802      24.303      22.165    
  19.492      16.470      13.325      10.289      7.5686      5.3224      3.6586      2.6403      2.2980      2.6403    
  3.6586      5.3225      7.5688      10.290      13.325      16.471      19.493      22.165      24.303      25.802    
  26.652      26.942      26.833      26.525      26.206      25.929      25.666      25.403      25.146      24.914    
  24.729      24.610      24.570      24.610      24.729      24.914      25.146      25.403      25.666      25.929    
  26.206      26.525      24.577      25.004      25.126      24.752      23.745      22.046      19.692      16.811    
  13.599      10.289      7.1230      4.3191      2.0589     0.47826     -.33386     -.33384     0.47833      2.0590    
  4.3192      7.1232      10.290      13.599      16.811      19.692      22.046      23.745      24.752      25.126    
  25.004      24.577      24.049      23.575      23.163      22.789      22.448      22.148      21.905      21.734    
  21.646      21.646      21.734      21.905      22.148      22.448      22.789      23.163      23.575      24.049    
  22.100      22.767      23.247      23.342      22.879      21.741      19.892      17.383      14.351      10.998    
  7.5685      4.3190      1.4949     -.69019     -2.0712     -2.5434     -2.0711     -.69008      1.4951      4.3192    
  7.5688      10.998      14.351      17.383      19.892      21.741      22.879      23.342      23.247      22.767    
  22.100      21.433      20.864      20.372      19.940      19.568      19.263      19.037      18.899      18.852    
  18.899      19.037      19.263      19.568      19.940      20.372      20.864      21.433      19.532      20.348    
  21.099      21.602      21.671      21.149      19.934      17.996      15.393      12.263      8.8190      5.3222    
  2.0588     -.69022     -2.6782     -3.7214     -3.7214     -2.6781     -.69008      2.0590      5.3225      8.8192    
  12.263      15.393      17.996      19.934      21.149      21.671      21.602      21.099      20.348      19.532    
  18.804      18.190      17.666      17.219      16.852      16.570      16.380      16.285      16.285      16.380    
  16.570      16.852      17.219      17.666      18.190      18.804      16.998      17.868      18.786      19.596    
  20.124      20.197      19.666      18.432      16.463      13.815      10.635      7.1522      3.6584     0.47815    
 -2.0712     -3.7215     -4.2926     -3.7214     -2.0711     0.47833      3.6586      7.1524      10.635      13.816    
  16.463      18.432      19.667      20.197      20.124      19.596      18.786      17.868      16.998      16.263    
  15.647      15.128      14.701      14.365      14.124      13.980      13.932      13.980      14.124      14.365    
  14.701      15.128      15.646      16.263      14.593      15.443      16.424      17.422      18.292      18.870    
  18.989      18.498      17.291      15.332      12.678      9.4936      6.0369      2.6401     -.33399     -2.5435    
 -3.7215     -3.7214     -2.5434     -.33384      2.6403      6.0372      9.4938      12.679      15.332      17.291    
  18.498      18.989      18.870      18.292      17.422      16.424      15.443      14.593      13.887      13.300    
  12.817      12.432      12.144      11.954      11.860      11.860      11.954      12.144      12.432      12.817    
  13.300      13.887      12.379      13.170      14.124      15.193      16.269      17.216      17.875      18.077    
  17.660      16.507      14.583      11.959      8.8252      5.4808      2.2978     -.33400     -2.0712     -2.6782    
 -2.0712     -.33386      2.2980      5.4810      8.8254      11.959      14.584      16.508      17.660      18.077    
  17.876      17.216      16.269      15.193      14.124      13.170      12.379      11.728      11.194      10.765    
  10.436      10.205      10.068      10.023      10.068      10.205      10.436      10.765      11.194      11.728    
  10.395      11.108      11.980      13.023      14.176      15.339      16.384      17.149      17.453      17.122    
  16.036      14.168      11.615      8.6060      5.4808      2.6401     0.47815     -.69022     -.69019     0.47826    
  2.6403      5.4810      8.6063      11.615      14.168      16.036      17.122      17.453      17.150      16.384    
  15.339      14.176      13.023      11.980      11.108      10.395      9.8135      9.3456      8.9812      8.7146    
  8.5408      8.4554      8.4554      8.5408      8.7146      8.9812      9.3456      9.8135      8.6568      9.2838    
  10.057      11.008      12.133      13.373      14.636      15.793      16.672      17.078      16.832      15.820    
  14.036      11.615      8.8252      6.0369      3.6584      2.0588      1.4949      2.0589      3.6586      6.0371    
  8.8254      11.615      14.036      15.820      16.832      17.078      16.672      15.793      14.636      13.373    
  12.133      11.008      10.057      9.2838      8.6568      8.1532      7.7578      7.4611      7.2559      7.1359    
  7.0965      7.1359      7.2559      7.4611      7.7578      8.1532      7.1664      7.7055      8.3790      9.2145    
  10.242      11.449      12.782      14.153      15.422      16.407      16.906      16.742      15.820      14.168    
  11.959      9.4936      7.1522      5.3222      4.3190      4.3191      5.3224      7.1523      9.4938      11.959    
  14.168      15.820      16.742      16.906      16.407      15.422      14.153      12.782      11.449      10.242    
  9.2146      8.3791      7.7056      7.1665      6.7421      6.4189      6.1869      6.0380      5.9654      5.9654    
  6.0380      6.1869      6.4189      6.7421      5.9141      6.3684      6.9455      7.6691      8.5695      9.6736    
  10.966      12.397      13.872      15.245      16.323      16.906      16.832      16.036      14.583      12.678    
  10.635      8.8190      7.5685      7.1230      7.5686      8.8191      10.635      12.679      14.584      16.036    
  16.832      16.906      16.323      15.245      13.872      12.397      10.966      9.6737      8.5695      7.6691    
  6.9455      6.3684      5.9141      5.5655      5.3094      5.1355      5.0351      5.0023      5.0351      5.1355    
  5.3094      5.5654      4.8824      5.2584      5.7461      6.3663      7.1452      8.1148      9.2984      10.680    
  12.207      13.781      15.245      16.407      17.078      17.122      16.507      15.332      13.815      12.263    
  10.998      10.289      10.289      10.998      12.263      13.815      15.332      16.508      17.122      17.078    
  16.407      15.245      13.781      12.208      10.680      9.2984      8.1148      7.1452      6.3663      5.7462    
  5.2584      4.8825      4.6024      4.4055      4.2809      4.2208      4.2208      4.2809      4.4054      4.6024    
  4.0492      4.3555      4.7628      5.2898      5.9595      6.8004      7.8445      9.1120      10.585      12.207    
  13.872      15.422      16.672      17.453      17.660      17.291      16.463      15.393      14.351      13.599    
  13.325      13.599      14.351      15.393      16.463      17.291      17.660      17.453      16.672      15.422    
  13.872      12.208      10.585      9.1120      7.8445      6.8004      5.9595      5.2898      4.7628      4.3555    
  4.0492      3.8288      3.6816      3.5977      3.5705      3.5977      3.6816      3.8288      3.3896      3.6360    
  3.9728      4.4175      4.9910      5.7186      6.6295      7.7549      9.1120      10.680      12.397      14.153    
  15.793      17.149      18.077      18.498      18.432      17.996      17.383      16.811      16.470      16.470    
  16.811      17.383      17.996      18.432      18.498      18.077      17.150      15.793      14.153      12.397    
  10.680      9.1120      7.7549      6.6295      5.7186      4.9911      4.4175      3.9728      3.6360      3.3897    
  3.2192      3.1128      3.0619      3.0619      3.1128      3.2192      2.8783      3.0744      3.3509      3.7243    
  4.2141      4.8435      5.6389      6.6295      7.8445      9.2984      10.966      12.782      14.636      16.384    
  17.875      18.989      19.666      19.934      19.892      19.692      19.492      19.411      19.492      19.692    
  19.892      19.934      19.667      18.989      17.876      16.384      14.636      12.782      10.966      9.2984    
  7.8445      6.6295      5.6389      4.8435      4.2142      3.7243      3.3509      3.0745      2.8783      2.7488    
  2.6756      2.6519      2.6756      2.7488      2.4908      2.6457      2.8717      3.1844      3.6022      4.1471    
  4.8435      5.7186      6.8004      8.1148      9.6736      11.449      13.373      15.339      17.216      18.870    
  20.197      21.149      21.741      22.046      22.165      22.195      22.195      22.165      22.046      21.741    
  21.149      20.197      18.870      17.216      15.339      13.373      11.449      9.6737      8.1148      6.8004    
  5.7186      4.8435      4.1471      3.6023      3.1844      2.8718      2.6458      2.4908      2.3947      2.3488    
  2.3488      2.3946      2.2051      2.3264      2.5109      2.7728      3.1297      3.6022      4.2141      4.9910    
  5.9595      7.1452      8.5695      10.242      12.133      14.176      16.269      18.292      20.124      21.671    
  22.879      23.745      24.303      24.607      24.703      24.607      24.303      23.745      22.879      21.671    
  20.124      18.292      16.269      14.176      12.133      10.242      8.5695      7.1452      5.9595      4.9911    
  4.2142      3.6023      3.1297      2.7728      2.5110      2.3264      2.2051      2.1365      2.1144      2.1365    
  2.0024      2.0960      2.2466      2.4668      2.7728      3.1844      3.7243      4.4175      5.2898      6.3663    
  7.6691      9.2145      11.008      13.023      15.193      17.422      19.596      21.602      23.342      24.752    
  25.802      26.490      26.828      26.828      26.490      25.802      24.752      23.342      21.602      19.596    
  17.422      15.193      13.023      11.008      9.2146      7.6691      6.3663      5.2898      4.4175      3.7243    
  3.1844      2.7728      2.4668      2.2466      2.0960      2.0024      1.9577      1.9577      1.8682      1.9377    
  2.0604      2.2466      2.5109      2.8717      3.3509      3.9728      4.7628      5.7461      6.9455      8.3790    
  10.057      11.980      14.124      16.424      18.786      21.099      23.247      25.126      26.652      27.772    
  28.452      28.681      28.452      27.772      26.652      25.126      23.247      21.099      18.786      16.424    
  14.124      11.980      10.057      8.3791      6.9456      5.7462      4.7628      3.9728      3.3509      2.8718    
  2.5110      2.2466      2.0604      1.9377      1.8682      1.8457      1.7918      1.8391      1.9377      2.0960    
  2.3264      2.6457      3.0744      3.6360      4.3555      5.2584      6.3684      7.7055      9.2838      11.108    
  13.170      15.443      17.868      20.348      22.767      25.004      26.942      28.482      29.549      30.094    
  30.094      29.549      28.482      26.942      25.004      22.767      20.348      17.868      15.443      13.170    
  11.108      9.2838      7.7056      6.3684      5.2584      4.3555      3.6360      3.0745      2.6458      2.3264    
  2.0960      1.9377      1.8391      1.7918      1.7137      1.7366      1.8073      1.9310      2.1170      2.3783    
  2.7312      3.1953      3.7922      4.5439      5.4715      6.5934      7.9228      9.4660      11.219      13.165    
  15.269      17.476      19.704      21.846      23.790      25.427      26.667      27.439      27.701      27.439    
  26.667      25.427      23.790      21.846      19.704      17.476      15.269      13.165      11.219      9.4660    
  7.9228      6.5934      5.4715      4.5439      3.7922      3.1954      2.7312      2.3783      2.1170      1.9310    
  1.8073      1.7366      1.7366      1.7366      1.7858      1.8877      2.0498      2.2829      2.6017      3.0239    
  3.5696      4.2604      5.1178      6.1616      7.4079      8.8673      10.541      12.419      14.475      16.665    
  18.921      21.157      23.268      25.138      26.653      27.721      28.272      28.272      27.721      26.653    
  25.138      23.268      21.157      18.921      16.665      14.475      12.419      10.541      8.8673      7.4080    
  6.1616      5.1178      4.2604      3.5696      3.0239      2.6017      2.2829      2.0498      1.8877      1.7858    
  1.8073      1.7810      1.8073      1.8877      2.0280      2.2373      2.5282      2.9165      3.4205      4.0606    
  4.8578      5.8330      7.0045      8.3868      9.9868      11.801      13.811      15.981      18.252      20.546    
  22.767      24.802      26.539      27.870      28.707      28.993      28.707      27.870      26.539      24.802    
  22.767      20.546      18.252      15.981      13.811      11.801      9.9869      8.3868      7.0045      5.8330    
  4.8579      4.0606      3.4205      2.9165      2.5282      2.2373      2.0281      1.8877      1.9310      1.8735    