Band structure                          
   1.00000000000000     
     3.880357    0.000000    0.000000
    -1.940178    3.360487    0.000000
     0.000000    0.000000    6.395361
   Ga   P 
     2     2
Direct
  0.666667  0.333333  0.499939
  0.333333  0.666667  0.999939
  0.666667  0.333333  0.874061
  0.333333  0.666667  0.374061
 
   48   48   72
 0.17670274741E+01 0.17917942542E+01 0.18681724050E+01 0.20024258688E+01 0.22050608015E+01
 0.24907959237E+01 0.28783091341E+01 0.33896416625E+01 0.40492069264E+01 0.48824316357E+01
 0.59141002165E+01 0.71664344359E+01 0.86568202160E+01 0.10394971176E+02 0.12379322607E+02
 0.14592682367E+02 0.16997621331E+02 0.19532073281E+02 0.22099684898E+02 0.24577149156E+02
 0.26832709769E+02 0.28739304575E+02 0.30186566132E+02 0.31090061136E+02 0.31397170949E+02
 0.31090067257E+02 0.30186577625E+02 0.28739319590E+02 0.26832726001E+02 0.24577165601E+02
 0.22099702944E+02 0.19532095927E+02 0.16997651250E+02 0.14592719857E+02 0.12379365655E+02
 0.10395016166E+02 0.86568632833E+01 0.71664729082E+01 0.59141332013E+01 0.48824596297E+01
 0.40492311138E+01 0.33896632112E+01 0.28783284080E+01 0.24908120929E+01 0.22050725553E+01
 0.20024327667E+01 0.18681754543E+01 0.17917951694E+01 0.17917951660E+01 0.17917947348E+01
 0.18456859507E+01 0.19577450695E+01 0.21365006661E+01 0.23946474053E+01 0.27488290802E+01
 0.32192132365E+01 0.38287974556E+01 0.46024167648E+01 0.55654329749E+01 0.67420550204E+01
 0.81531689573E+01 0.98134977103E+01 0.11727948996E+02 0.13887214708E+02 0.16263050335E+02
 0.18804086601E+02 0.21433349024E+02 0.24048721102E+02 0.26525117861E+02 0.28723253319E+02
 0.30509457924E+02 0.31769872676E+02 0.32421799775E+02 0.32421800388E+02 0.31769874672E+02
 0.30509461464E+02 0.28723258293E+02 0.26525124522E+02 0.24048731104E+02 0.21433365427E+02
 0.18804112322E+02 0.16263086337E+02 0.13887258463E+02 0.11727994934E+02 0.98135399809E+01
 0.81532044780E+01 0.67420841534E+01 0.55654577389E+01 0.46024389472E+01 0.38288180508E+01
 0.32192323612E+01 0.27488457332E+01 0.23946599787E+01 0.21365084223E+01 0.19577489231E+01
 0.18456875461E+01 0.18681755521E+01 0.18390582124E+01 0.18681749227E+01 0.19577469316E+01
 0.21143634741E+01 0.23487721367E+01 0.26755705867E+01 0.31128261777E+01 0.36816171539E+01
 0.44054424803E+01 0.53093894901E+01 0.64188818799E+01 0.77577745765E+01 0.93455622811E+01
 0.11193581564E+02 0.13300341014E+02 0.15646471847E+02 0.18190143485E+02 0.20864004256E+02
 0.23574706480E+02 0.26205859972E+02 0.28624870014E+02 0.30693564814E+02 0.32281761780E+02
 0.33281975638E+02 0.33623560262E+02 0.33281972937E+02 0.32281757861E+02 0.30693561906E+02
 0.28624870566E+02 0.26205866593E+02 0.23574721464E+02 0.20864028567E+02 0.18190176138E+02
 0.15646510102E+02 0.13300380929E+02 0.11193618927E+02 0.93455941995E+01 0.77578008166E+01
 0.64189044198E+01 0.53094105201E+01 0.44054628323E+01 0.36816362838E+01 0.31128429145E+01
 0.26755837339E+01 0.23487809970E+01 0.21143683394E+01 0.19577489995E+01 0.20024328761E+01
 0.19376868646E+01 0.19376863568E+01 0.20024311019E+01 0.21365046924E+01 0.23487741155E+01
 0.26519112108E+01 0.30619072216E+01 0.35976993232E+01 0.42808986766E+01 0.51354518740E+01
 0.61869301866E+01 0.74610684202E+01 0.89812112653E+01 0.10764503269E+02 0.12816976908E+02
 0.15128089388E+02 0.17665609911E+02 0.20371927768E+02 0.23162768302E+02 0.25929025389E+02
 0.28542083611E+02 0.30862685694E+02 0.32753003694E+02 0.34090915471E+02 0.34784574838E+02
 0.34784572457E+02 0.34090909480E+02 0.32752997004E+02 0.30862681943E+02 0.28542086304E+02
 0.25929036925E+02 0.23162788771E+02 0.20371954627E+02 0.17665639452E+02 0.15128118810E+02
 0.12817005023E+02 0.10764529702E+02 0.89812357823E+01 0.74610911833E+01 0.61869519699E+01
 0.51354733732E+01 0.42809195637E+01 0.35977181928E+01 0.30619225019E+01 0.26519221264E+01
 0.23487809674E+01 0.21365084690E+01 0.22050725553E+01 0.20959635569E+01 0.20603922631E+01
 0.20959614306E+01 0.22050681680E+01 0.23946528826E+01 0.26755731625E+01 0.30619078778E+01
 0.35704941403E+01 0.42208123602E+01 0.50350532186E+01 0.60379516029E+01 0.72558571005E+01
 0.87145736702E+01 0.10435736752E+02 0.12431862230E+02 0.14700623011E+02 0.17219271886E+02
 0.19940301471E+02 0.22789331071E+02 0.25665886704E+02 0.28447375698E+02 0.30996318991E+02
 0.33170751509E+02 0.34837356974E+02 0.35886120320E+02 0.36244213061E+02 0.35886116894E+02
 0.34837351015E+02 0.33170745366E+02 0.30996316105E+02 0.28447378879E+02 0.25665896560E+02
 0.22789346040E+02 0.19940319146E+02 0.17219290418E+02 0.14700641841E+02 0.12431881966E+02
 0.10435758312E+02 0.87145973072E+01 0.72558821153E+01 0.60379768193E+01 0.50350774424E+01
 0.42208343950E+01 0.35705128079E+01 0.30619224245E+01 0.26755836361E+01 0.23946599501E+01
 0.24908121138E+01 0.23264226104E+01 0.22466444506E+01 0.22466430578E+01 0.23264180969E+01
 0.24908041545E+01 0.27488347681E+01 0.31128292483E+01 0.35977014641E+01 0.42208136646E+01
 0.50022985718E+01 0.59653669885E+01 0.71359117690E+01 0.85407964532E+01 0.10204529123E+02
 0.12144451968E+02 0.14365006348E+02 0.16851963527E+02 0.19567657683E+02 0.22448165818E+02
 0.25403080184E+02 0.28318164150E+02 0.31060964724E+02 0.33489420238E+02 0.35463414796E+02
 0.36858711571E+02 0.37581623755E+02 0.37581621493E+02 0.36858705015E+02 0.35463405096E+02
 0.33489409832E+02 0.31060956429E+02 0.28318159764E+02 0.25403080066E+02 0.22448169430E+02
 0.19567664321E+02 0.16851973035E+02 0.14365019610E+02 0.12144470367E+02 0.10204553060E+02
 0.85408244916E+01 0.71359412935E+01 0.59653953536E+01 0.50023237016E+01 0.42208344479E+01
 0.35977181216E+01 0.31128428137E+01 0.27488457576E+01 0.28783286116E+01 0.26457654594E+01
 0.25109540930E+01 0.24668465538E+01 0.25109506794E+01 0.26457585867E+01 0.28783189701E+01
 0.32192210497E+01 0.36816229202E+01 0.42809029808E+01 0.50350563062E+01 0.59653692282E+01
 0.70965304569E+01 0.84553745842E+01 0.10067857857E+02 0.11954421149E+02 0.14124373021E+02
 0.16570196541E+02 0.19262725466E+02 0.22147988048E+02 0.25146249623E+02 0.28153506147E+02
 0.31045526141E+02 0.33684574394E+02 0.35929027287E+02 0.37645836452E+02 0.38724910459E+02
 0.39093151214E+02 0.38724898889E+02 0.37645816476E+02 0.35929003907E+02 0.33684552149E+02
 0.31045507431E+02 0.28153491604E+02 0.25146239548E+02 0.22147982981E+02 0.19262726003E+02
 0.16570203596E+02 0.14124387936E+02 0.11954444350E+02 0.10067887281E+02 0.84554062268E+01
 0.70965605438E+01 0.59653954544E+01 0.50350776461E+01 0.42809195933E+01 0.36816361779E+01
 0.32192324376E+01 0.33896634274E+01 0.30744688914E+01 0.28717694114E+01 0.27728286430E+01
 0.27728270113E+01 0.28717649717E+01 0.30744626172E+01 0.33896559286E+01 0.38288089468E+01
 0.44054511457E+01 0.51354584139E+01 0.60379575027E+01 0.71359167261E+01 0.84553773572E+01
 0.10022733582E+02 0.11860203580E+02 0.13980261217E+02 0.16380067902E+02 0.19036846162E+02
 0.21904826881E+02 0.24914071798E+02 0.27971257377E+02 0.30962469377E+02 0.33758191058E+02
 0.36220848696E+02 0.38215225134E+02 0.39621440198E+02 0.40348981163E+02 0.40348970792E+02
 0.39621411782E+02 0.38215186040E+02 0.36220808046E+02 0.33758155315E+02 0.30962440316E+02
 0.27971234584E+02 0.24914056072E+02 0.21904820207E+02 0.19036849463E+02 0.16380080448E+02
 0.13980281745E+02 0.11860230365E+02 0.10022763435E+02 0.84554060904E+01 0.71359412579E+01
 0.60379770035E+01 0.51354734799E+01 0.44054626959E+01 0.38288179908E+01 0.40492311138E+01
 0.36359829815E+01 0.33509378073E+01 0.31843903897E+01 0.31296748669E+01 0.31843885656E+01
 0.33509344052E+01 0.36359783917E+01 0.40492255071E+01 0.46024317418E+01 0.53094009888E+01
 0.61869392230E+01 0.72558653884E+01 0.85408037986E+01 0.10067863845E+02 0.11860206291E+02
 0.13932368643E+02 0.16284630390E+02 0.18898532886E+02 0.21734145522E+02 0.24729143957E+02
 0.27799507176E+02 0.30841705535E+02 0.33736512169E+02 0.36354824115E+02 0.38565925362E+02
 0.40248262942E+02 0.41301929093E+02 0.41660858086E+02 0.41301904397E+02 0.40248219024E+02
 0.38565871432E+02 0.36354769845E+02 0.33736464599E+02 0.30841668310E+02 0.27799481939E+02
 0.24729131508E+02 0.21734145525E+02 0.18898543377E+02 0.16284648351E+02 0.13932391002E+02
 0.11860230309E+02 0.10067887077E+02 0.85408243106E+01 0.72558821153E+01 0.61869520206E+01
 0.53094104223E+01 0.46024387905E+01 0.48824596562E+01 0.43555052260E+01 0.39727882851E+01
 0.37243121125E+01 0.36022763005E+01 0.36022757048E+01 0.37243100686E+01 0.39727845434E+01
 0.43555001922E+01 0.48824539088E+01 0.55654510401E+01 0.64188956517E+01 0.74610801751E+01
 0.87145847848E+01 0.10204539110E+02 0.11954428212E+02 0.13980263663E+02 0.16284630767E+02
 0.18852047959E+02 0.21646400540E+02 0.24610422774E+02 0.27666769416E+02 0.30720295328E+02
 0.33661531989E+02 0.36371650015E+02 0.38729211513E+02 0.40618739719E+02 0.41940486691E+02
 0.42620320329E+02 0.42620306959E+02 0.41940449513E+02 0.40618685602E+02 0.38729148569E+02
 0.36371587122E+02 0.33661478425E+02 0.30720257924E+02 0.27666749609E+02 0.24610417599E+02
 0.21646406226E+02 0.18852061431E+02 0.16284648538E+02 0.13980281775E+02 0.11954444243E+02
 0.10204553066E+02 0.87145973657E+01 0.74610911066E+01 0.64189043134E+01 0.55654577689E+01
 0.59141337015E+01 0.52584068438E+01 0.47628384609E+01 0.44175030042E+01 0.42141792288E+01
 0.41471061056E+01 0.42141769078E+01 0.44174992703E+01 0.47628333064E+01 0.52583994790E+01
 0.59141245699E+01 0.67420750048E+01 0.77577919114E+01 0.89812276059E+01 0.10435750716E+02
 0.12144462490E+02 0.14124378766E+02 0.16380069876E+02 0.18898533092E+02 0.21646399868E+02
 0.24569575387E+02 0.27594730653E+02 0.30632054116E+02 0.33579107635E+02 0.36325972463E+02
 0.38761740767E+02 0.40780291380E+02 0.42283704747E+02 0.43206997406E+02 0.43517904170E+02
 0.43206970778E+02 0.42283656320E+02 0.40780228457E+02 0.38761671835E+02 0.36325907877E+02
 0.33579057071E+02 0.30632021886E+02 0.27594715231E+02 0.24569572918E+02 0.21646406332E+02
 0.18898543877E+02 0.16380080584E+02 0.14124387640E+02 0.12144470467E+02 0.10435758812E+02
 0.89812358119E+01 0.77578004142E+01 0.67420842298E+01 0.71664736643E+01 0.63684144515E+01
 0.57461777743E+01 0.52897959130E+01 0.49910582320E+01 0.48435293609E+01 0.48435276494E+01
 0.49910547512E+01 0.52897919824E+01 0.57461708753E+01 0.63684025330E+01 0.71664598139E+01
 0.81531926455E+01 0.93455853852E+01 0.10764523641E+02 0.12431878055E+02 0.14365017634E+02
 0.16570202687E+02 0.19036848293E+02 0.21734144828E+02 0.24610421618E+02 0.27594729539E+02
 0.30599952630E+02 0.33527239546E+02 0.36271984826E+02 0.38731178499E+02 0.40799821879E+02
 0.42387004398E+02 0.43450643830E+02 0.43981426806E+02 0.43981411247E+02 0.43450600444E+02
 0.42386941204E+02 0.40799748926E+02 0.38731106622E+02 0.36271923639E+02 0.33527194919E+02
 0.30599924269E+02 0.27594714555E+02 0.24610417029E+02 0.21734146121E+02 0.19036850003E+02
 0.16570202920E+02 0.14365019035E+02 0.12431882690E+02 0.10764530348E+02 0.93455935233E+01
 0.81532038781E+01 0.86568632833E+01 0.77055680996E+01 0.69455546401E+01 0.63662952889E+01
 0.59595468750E+01 0.57186426439E+01 0.56389124485E+01 0.57186411393E+01 0.59595455312E+01
 0.63662923055E+01 0.69455459342E+01 0.77055541324E+01 0.86568491131E+01 0.98135269263E+01
 0.11193609550E+02 0.12817000641E+02 0.14700642271E+02 0.16851977216E+02 0.19262732953E+02
 0.21904829659E+02 0.24729144176E+02 0.27666767469E+02 0.30632048350E+02 0.33527234215E+02
 0.36249176804E+02 0.38697465200E+02 0.40761985439E+02 0.42356505404E+02 0.43461915344E+02
 0.44102279474E+02 0.44310841163E+02 0.44102240439E+02 0.43461849221E+02 0.42356426519E+02
 0.40761905307E+02 0.38697393992E+02 0.36249121492E+02 0.33527195737E+02 0.30632021386E+02
 0.27666748008E+02 0.24729131508E+02 0.21904821565E+02 0.19262725799E+02 0.16851971440E+02
 0.14700641841E+02 0.12817006488E+02 0.11193618829E+02 0.98135384104E+01 0.10395014616E+02
 0.92838118519E+01 0.83790870956E+01 0.76691471519E+01 0.71452278999E+01 0.68004432652E+01
 0.66295410711E+01 0.66295408519E+01 0.68004440877E+01 0.71452300842E+01 0.76691465505E+01
 0.83790807968E+01 0.92838025426E+01 0.10395005328E+02 0.11727983545E+02 0.13300373122E+02
 0.15128117236E+02 0.17219294975E+02 0.19567674255E+02 0.22147998575E+02 0.24914077453E+02
 0.27799508008E+02 0.30720288371E+02 0.33579094852E+02 0.36271973639E+02 0.38697459059E+02
 0.40739844365E+02 0.42305376996E+02 0.43386713352E+02 0.44039909973E+02 0.44340723451E+02
 0.44340698818E+02 0.44039846249E+02 0.43386630706E+02 0.42305290678E+02 0.40739764335E+02
 0.38697394016E+02 0.36271925785E+02 0.33579058541E+02 0.30720256348E+02 0.27799480549E+02
 0.24914057678E+02 0.22147984451E+02 0.19567662750E+02 0.17219288901E+02 0.15128120309E+02
 0.13300382399E+02 0.11727993387E+02 0.12379362991E+02 0.11107947126E+02 0.10057391905E+02
 0.92145730474E+01 0.85695452044E+01 0.81147965436E+01 0.78445310003E+01 0.77548980124E+01
 0.78445297121E+01 0.81147992833E+01 0.85695516054E+01 0.92145768166E+01 0.10057391679E+02
 0.11107947056E+02 0.12379362824E+02 0.13887254256E+02 0.15646507370E+02 0.17665641625E+02
 0.19940328807E+02 0.22448187291E+02 0.25146264626E+02 0.27971265376E+02 0.30841704019E+02
 0.33661519552E+02 0.36325956120E+02 0.38731164123E+02 0.40761975471E+02 0.42305371916E+02
 0.43346069950E+02 0.43957656056E+02 0.44256018321E+02 0.44342232940E+02 0.44255974156E+02
 0.43957583941E+02 0.43345987019E+02 0.42305289208E+02 0.40761902643E+02 0.38731107298E+02
 0.36325911041E+02 0.33661478531E+02 0.30841665647E+02 0.27971234720E+02 0.25146242415E+02
 0.22448169530E+02 0.19940316482E+02 0.17665639482E+02 0.15646512863E+02 0.13887258539E+02
 0.14592717678E+02 0.13169748948E+02 0.11979912334E+02 0.11008108112E+02 0.10241851791E+02
 0.96736673339E+01 0.92984191021E+01 0.91120347292E+01 0.91120315454E+01 0.92984157792E+01
 0.96736713046E+01 0.10241859303E+02 0.11008113333E+02 0.11979918688E+02 0.13169760429E+02
 0.14592728384E+02 0.16263092805E+02 0.18190182075E+02 0.20371964693E+02 0.22789364263E+02
 0.25403106790E+02 0.28153524895E+02 0.30962479025E+02 0.33736508737E+02 0.36371636373E+02
 0.38761725564E+02 0.40799809070E+02 0.42356495403E+02 0.43386703867E+02 0.43957650725E+02
 0.44208354282E+02 0.44286812745E+02 0.44286794264E+02 0.44208306171E+02 0.43957586200E+02
 0.43386631496E+02 0.42356422765E+02 0.40799745990E+02 0.38761674094E+02 0.36371589487E+02
 0.33736462259E+02 0.30962437921E+02 0.28153493863E+02 0.25403082426E+02 0.22789343828E+02
 0.20371952338E+02 0.18190178397E+02 0.16263088673E+02 0.16997651250E+02 0.15442954972E+02
 0.14123675577E+02 0.13023275993E+02 0.12133174937E+02 0.11448884992E+02 0.10966185215E+02
 0.10679840807E+02 0.10585047806E+02 0.10679834164E+02 0.10966180933E+02 0.11448885985E+02
 0.12133176830E+02 0.13023280268E+02 0.14123688959E+02 0.15442975533E+02 0.16997669810E+02
 0.18804131181E+02 0.20864048221E+02 0.23162811452E+02 0.25665924967E+02 0.28318195485E+02
 0.31045550128E+02 0.33758203149E+02 0.36354820639E+02 0.38729200738E+02 0.40780281600E+02
 0.42386997914E+02 0.43461908650E+02 0.44039903038E+02 0.44256019900E+02 0.44286820139E+02
 0.44278313407E+02 0.44286792909E+02 0.44255976820E+02 0.44039851333E+02 0.43461849221E+02
 0.42386936913E+02 0.40780227957E+02 0.38729152077E+02 0.36354769845E+02 0.33758151565E+02
 0.31045507227E+02 0.28318163278E+02 0.25665896560E+02 0.23162785127E+02 0.20864028469E+02
 0.18804115859E+02 0.19532098579E+02 0.17867732345E+02 0.16423864297E+02 0.15193215353E+02
 0.14175726837E+02 0.13372798883E+02 0.12782253736E+02 0.12396938859E+02 0.12207538606E+02
 0.12207534361E+02 0.12396931187E+02 0.12782248699E+02 0.13372794738E+02 0.14175723122E+02
 0.15193220043E+02 0.16423882231E+02 0.17867756792E+02 0.19532123469E+02 0.21433397826E+02
 0.23574756289E+02 0.25929073504E+02 0.28447419528E+02 0.31061003478E+02 0.33684604682E+02
 0.36220862625E+02 0.38565925125E+02 0.40618736805E+02 0.42283705227E+02 0.43450647746E+02
 0.44102284232E+02 0.44340735494E+02 0.44342257154E+02 0.44286819256E+02 0.44286807755E+02
 0.44342230209E+02 0.44340703019E+02 0.44102244665E+02 0.43450598388E+02 0.42283653589E+02
 0.40618688227E+02 0.38565874244E+02 0.36220805451E+02 0.33684549418E+02 0.31060959059E+02
 0.28447381562E+02 0.25929034223E+02 0.23574718733E+02 0.21433368082E+02 0.22099706840E+02
 0.20347710651E+02 0.18786376590E+02 0.17422170624E+02 0.16268966504E+02 0.15339223940E+02
 0.14636421037E+02 0.14152605923E+02 0.13872337484E+02 0.13780908685E+02 0.13872330768E+02
 0.14152600964E+02 0.14636419278E+02 0.15339219859E+02 0.16268963048E+02 0.17422178614E+02
 0.18786398134E+02 0.20347738287E+02 0.22099739205E+02 0.24048774282E+02 0.26205914982E+02
 0.28542138063E+02 0.30996370702E+02 0.33489467159E+02 0.35929063092E+02 0.38215244849E+02
 0.40248274115E+02 0.41940497341E+02 0.43207011158E+02 0.43981444134E+02 0.44310865462E+02
 0.44340738226E+02 0.44256023796E+02 0.44208352022E+02 0.44256011760E+02 0.44340721982E+02
 0.44310845060E+02 0.43981411923E+02 0.43206967381E+02 0.41940449620E+02 0.40248222921E+02
 0.38215186176E+02 0.35929000214E+02 0.33489409932E+02 0.30996320002E+02 0.28542086334E+02
 0.26205862794E+02 0.24048731180E+02 0.24577168295E+02 0.22767277884E+02 0.21099399953E+02
 0.19596480982E+02 0.18291823955E+02 0.17215897365E+02 0.16384467550E+02 0.15793304034E+02
 0.15421936764E+02 0.15244854861E+02 0.15244851506E+02 0.15421933239E+02 0.15793307646E+02
 0.16384473462E+02 0.17215900067E+02 0.18291830384E+02 0.19596499782E+02 0.21099428124E+02
 0.22767310165E+02 0.24577209425E+02 0.26525177364E+02 0.28624931718E+02 0.30862747014E+02
 0.33170810753E+02 0.35463470279E+02 0.37645881453E+02 0.39621473522E+02 0.41301957187E+02
 0.42620346234E+02 0.43517930523E+02 0.43981441520E+02 0.44102284350E+02 0.44039909266E+02
 0.43957655598E+02 0.43957653442E+02 0.44039905890E+02 0.44102280594E+02 0.43981428743E+02
 0.43517901556E+02 0.42620304452E+02 0.41301906931E+02 0.39621414260E+02 0.37645813862E+02
 0.35463402582E+02 0.33170748028E+02 0.30862684527E+02 0.28624867952E+02 0.26525121984E+02
 0.26832726001E+02 0.25003983783E+02 0.23247350243E+02 0.21601926167E+02 0.20124175648E+02
 0.18869719964E+02 0.17875539157E+02 0.17149552348E+02 0.16671828377E+02 0.16407071562E+02
 0.16323104572E+02 0.16407070463E+02 0.16671833916E+02 0.17149566066E+02 0.17875555411E+02
 0.18869738669E+02 0.20124202755E+02 0.21601961508E+02 0.23247388146E+02 0.25004025843E+02
 0.26832779930E+02 0.28723320579E+02 0.30693631535E+02 0.32753070558E+02 0.34837424641E+02
 0.36858776389E+02 0.38724965664E+02 0.40349029057E+02 0.41660902565E+02 0.42620346898E+02
 0.43207007261E+02 0.43450641736E+02 0.43461908650E+02 0.43386709405E+02 0.43346072613E+02
 0.43386711543E+02 0.43461915344E+02 0.43450646433E+02 0.43206996906E+02 0.42620316945E+02
 0.41660858086E+02 0.40348973934E+02 0.38724898686E+02 0.36858701635E+02 0.34837351015E+02
 0.32753000253E+02 0.30693561808E+02 0.28723254938E+02 0.28739317605E+02 0.26941681426E+02
 0.25125730491E+02 0.23342193790E+02 0.21670715999E+02 0.20197097860E+02 0.18988719743E+02
 0.18076924355E+02 0.17452766623E+02 0.17077795274E+02 0.16905675526E+02 0.16905676209E+02
 0.17077801201E+02 0.17452782697E+02 0.18076949405E+02 0.18988751892E+02 0.20197139578E+02
 0.21670767487E+02 0.23342248799E+02 0.25125785193E+02 0.26941740169E+02 0.28739383999E+02
 0.30509529930E+02 0.32281831976E+02 0.34090988139E+02 0.35886194277E+02 0.37581692490E+02
 0.39093212756E+02 0.40349030431E+02 0.41301961706E+02 0.41940499245E+02 0.42283700591E+02
 0.42386992395E+02 0.42356495048E+02 0.42305373821E+02 0.42305376561E+02 0.42356504994E+02
 0.42387006979E+02 0.42283706651E+02 0.41940484680E+02 0.41301927269E+02 0.40348983204E+02
 0.39093153119E+02 0.37581619488E+02 0.35886114941E+02 0.34090911414E+02 0.32281759766E+02
 0.30509459483E+02 0.30186575603E+02 0.28481529429E+02 0.26652325502E+02 0.24752245855E+02
 0.22878957886E+02 0.21148951411E+02 0.19666609201E+02 0.18498245010E+02 0.17659747294E+02
 0.17122018724E+02 0.16832129909E+02 0.16741904333E+02 0.16832135073E+02 0.17122034475E+02
 0.17659775993E+02 0.18498284979E+02 0.19666661407E+02 0.21149018381E+02 0.22879035639E+02
 0.24752325176E+02 0.26652401918E+02 0.28481604747E+02 0.30186650328E+02 0.31769947383E+02
 0.33282048698E+02 0.34784651073E+02 0.36244288675E+02 0.37581690586E+02 0.38724963643E+02
 0.39621476136E+02 0.40248280033E+02 0.40618739536E+02 0.40780279578E+02 0.40799806811E+02
 0.40761974829E+02 0.40739842896E+02 0.40761983418E+02 0.40799822555E+02 0.40780293902E+02
 0.40618739826E+02 0.40248260920E+02 0.39621440334E+02 0.38724912684E+02 0.37581623855E+02
 0.36244211040E+02 0.34784572487E+02 0.33281975057E+02 0.31769874748E+02 0.31090066377E+02
 0.29548627928E+02 0.27771663111E+02 0.25802092050E+02 0.23744783257E+02 0.21741129248E+02
 0.19933664603E+02 0.18432062726E+02 0.17291123886E+02 0.16507557758E+02 0.16036272327E+02
 0.15819907848E+02 0.15819911318E+02 0.16036285917E+02 0.16507586067E+02 0.17291167419E+02
 0.18432121412E+02 0.19933741415E+02 0.21741224402E+02 0.23744888467E+02 0.25802195959E+02
 0.27771759782E+02 0.29548716350E+02 0.31090146281E+02 0.32421875026E+02 0.33623635386E+02
 0.34784652032E+02 0.35886193332E+02 0.36858772151E+02 0.37645877880E+02 0.38215245809E+02
 0.38565928815E+02 0.38729203393E+02 0.38761726864E+02 0.38731165082E+02 0.38697458549E+02
 0.38697462746E+02 0.38731176863E+02 0.38761741726E+02 0.38729212579E+02 0.38565924323E+02
 0.38215224038E+02 0.37645837411E+02 0.36858712631E+02 0.35886119408E+02 0.34784573849E+02
 0.33623561221E+02 0.32421801423E+02 0.31397170949E+02 0.30094069420E+02 0.28452446851E+02
 0.26490016322E+02 0.24303199518E+02 0.22045635796E+02 0.19891642033E+02 0.17996150920E+02
 0.16463146826E+02 0.15331750124E+02 0.14583609082E+02 0.14168255639E+02 0.14036480236E+02
 0.14168266376E+02 0.14583634251E+02 0.15331793116E+02 0.16463209462E+02 0.17996235219E+02
 0.19891748690E+02 0.22045759719E+02 0.24303329829E+02 0.26490141794E+02 0.28452559927E+02
 0.30094166581E+02 0.31397253486E+02 0.32421875203E+02 0.33282050720E+02 0.34090990827E+02
 0.34837424641E+02 0.35463466882E+02 0.35929059195E+02 0.36220860677E+02 0.36354820639E+02
 0.36371637849E+02 0.36325958784E+02 0.36271975892E+02 0.36249176804E+02 0.36271983367E+02
 0.36325971963E+02 0.36371650692E+02 0.36354824115E+02 0.36220847776E+02 0.35929027083E+02
 0.35463415479E+02 0.34837356974E+02 0.34090914659E+02 0.33281975540E+02 0.32421800482E+02
 0.31090061309E+02 0.30094064268E+02 0.28680616199E+02 0.26828410716E+02 0.24607269938E+02
 0.22164582745E+02 0.19691958625E+02 0.17382692223E+02 0.15392644098E+02 0.13815467150E+02
 0.12678510606E+02 0.11959249179E+02 0.11615195780E+02 0.11615202552E+02 0.11959271140E+02
 0.12678551615E+02 0.13815531323E+02 0.15392734370E+02 0.17382808762E+02 0.19692096991E+02
 0.22164733752E+02 0.24607422006E+02 0.26828552728E+02 0.28680739721E+02 0.30094166051E+02
 0.31090145069E+02 0.31769947130E+02 0.32281834134E+02 0.32753074089E+02 0.33170813114E+02
 0.33489466906E+02 0.33684602203E+02 0.33758199787E+02 0.33736506224E+02 0.33661519299E+02
 0.33579096575E+02 0.33527235962E+02 0.33527239969E+02 0.33579107382E+02 0.33661532136E+02
 0.33736512502E+02 0.33758190942E+02 0.33684574141E+02 0.33489420390E+02 0.33170751714E+02
 0.32753003471E+02 0.32281761527E+02 0.31769872853E+02 0.30186566227E+02 0.29548612820E+02
 0.28452432354E+02 0.26828401713E+02 0.24702675256E+02 0.22194836607E+02 0.19492459575E+02
 0.16810938739E+02 0.14350627816E+02 0.12263162263E+02 0.10635402864E+02 0.94937899944E+01
 0.88253851963E+01 0.86062744933E+01 0.88254042688E+01 0.94938309138E+01 0.10635469744E+02
 0.12263258449E+02 0.14350753767E+02 0.16811090466E+02 0.19492628478E+02 0.22195011108E+02
 0.24702843311E+02 0.26828552981E+02 0.28452560022E+02 0.29548715391E+02 0.30186648211E+02
 0.30509528026E+02 0.30693631630E+02 0.30862749628E+02 0.30996374503E+02 0.31061006210E+02
 0.31045550223E+02 0.30962476766E+02 0.30841701260E+02 0.30720286901E+02 0.30632048446E+02
 0.30599953307E+02 0.30632054521E+02 0.30720295434E+02 0.30841705631E+02 0.30962469514E+02
 0.31045526249E+02 0.31060964825E+02 0.30996319087E+02 0.30862685723E+02 0.30693564816E+02
 0.30509458001E+02 0.28739304634E+02 0.28481505344E+02 0.27771634631E+02 0.26489989579E+02
 0.24607246602E+02 0.22194820929E+02 0.19411369829E+02 0.16470351067E+02 0.13598676517E+02
 0.10998109322E+02 0.88191170100E+01 0.71523485426E+01 0.60371362304E+01 0.54810339305E+01
 0.54810476503E+01 0.60371782849E+01 0.71524210457E+01 0.88192217795E+01 0.10998246008E+02
 0.13598841159E+02 0.16470535707E+02 0.19411563389E+02 0.22195011129E+02 0.24607422279E+02
 0.26490142557E+02 0.27771760721E+02 0.28481604767E+02 0.28739382115E+02 0.28723317280E+02
 0.28624929084E+02 0.28542138083E+02 0.28447422279E+02 0.28318199079E+02 0.28153527135E+02
 0.27971265396E+02 0.27799506558E+02 0.27666765955E+02 0.27594728843E+02 0.27594730673E+02
 0.27666769542E+02 0.27799507075E+02 0.27971257221E+02 0.28153506167E+02 0.28318164271E+02
 0.28447375726E+02 0.28542083562E+02 0.28624870035E+02 0.28723253416E+02 0.26832709769E+02
 0.26941650137E+02 0.26652284822E+02 0.25802049154E+02 0.24303155601E+02 0.22164538269E+02
 0.19492420720E+02 0.16470326645E+02 0.13325175521E+02 0.10289361127E+02 0.75686112458E+01
 0.53223518069E+01 0.36585565251E+01 0.26403039804E+01 0.22980011187E+01 0.26403427384E+01
 0.36586335556E+01 0.53224659130E+01 0.75687597490E+01 0.10289538818E+02 0.13325374190E+02
 0.16470535657E+02 0.19492628383E+02 0.22164733570E+02 0.24303329829E+02 0.25802196848E+02
 0.26652403939E+02 0.26941742144E+02 0.26832779930E+02 0.26525174679E+02 0.26205911085E+02
 0.25929070844E+02 0.25665924967E+02 0.25403108979E+02 0.25146267289E+02 0.24914078993E+02
 0.24729144176E+02 0.24610420871E+02 0.24569574887E+02 0.24610422738E+02 0.24729143957E+02
 0.24914071590E+02 0.25146249420E+02 0.25403080154E+02 0.25665886704E+02 0.25929025288E+02
 0.26205859874E+02 0.26525117856E+02 0.24577149145E+02 0.25003948341E+02 0.25125681460E+02
 0.24752190685E+02 0.23744723777E+02 0.22045568978E+02 0.19691886616E+02 0.16810868979E+02
 0.13598619105E+02 0.10289327772E+02 0.71230342904E+01 0.43190593129E+01 0.20588643917E+01
 0.47825644265E+00 -.33386097408E+00 -.33383641758E+00 0.47832900317E+00 0.20589817520E+01
 0.43192162151E+01 0.71232231724E+01 0.10289538815E+02 0.13598841071E+02 0.16811090398E+02
 0.19692096806E+02 0.22045759004E+02 0.23744887440E+02 0.24752325108E+02 0.25125787165E+02
 0.25004029190E+02 0.24577211971E+02 0.24048774213E+02 0.23574753626E+02 0.23162807906E+02
 0.22789361935E+02 0.22448187222E+02 0.22148000113E+02 0.21904831221E+02 0.21734145437E+02
 0.21646399800E+02 0.21646400502E+02 0.21734145670E+02 0.21904826949E+02 0.22147987980E+02
 0.22448165785E+02 0.22789331091E+02 0.23162768263E+02 0.23574706412E+02 0.24048721093E+02
 0.22099685057E+02 0.22767242360E+02 0.23247298559E+02 0.23342131785E+02 0.22878888655E+02
 0.21741047926E+02 0.19891546150E+02 0.17382586497E+02 0.14350520761E+02 0.10998013372E+02
 0.75685400542E+01 0.43190224957E+01 0.14949481958E+01 -.69018572900E+00 -.20711554822E+01
 -.25433964976E+01 -.20710995802E+01 -.69007694909E+00 0.14951039668E+01 0.43192162832E+01
 0.75687599078E+01 0.10998245987E+02 0.14350753704E+02 0.17382809015E+02 0.19891748849E+02
 0.21741223443E+02 0.22879033458E+02 0.23342246895E+02 0.23247388305E+02 0.22767312779E+02
 0.22099742943E+02 0.21433400557E+02 0.20864048380E+02 0.20371962433E+02 0.19940325985E+02
 0.19567672785E+02 0.19262733112E+02 0.19036848969E+02 0.18898533433E+02 0.18852048065E+02
 0.18898533045E+02 0.19036846298E+02 0.19262725511E+02 0.19567657784E+02 0.19940301630E+02
 0.20371927797E+02 0.20864004195E+02 0.21433349101E+02 0.19532073560E+02 0.20347678281E+02
 0.21099351380E+02 0.21601862527E+02 0.21670641806E+02 0.21148862839E+02 0.19933555419E+02
 0.17996022039E+02 0.15392501310E+02 0.12263016016E+02 0.88189827609E+01 0.53222445975E+01
 0.20587926220E+01 -.69022123104E+00 -.26782402336E+01 -.37214247877E+01 -.37213939959E+01
 -.26781499403E+01 -.69007714859E+00 0.20589816206E+01 0.53224661833E+01 0.88192219993E+01
 0.12263258250E+02 0.15392734423E+02 0.17996236202E+02 0.19933742574E+02 0.21149018181E+02
 0.21670765383E+02 0.21601958429E+02 0.21099425710E+02 0.20347738087E+02 0.19532126001E+02
 0.18804134995E+02 0.18190184534E+02 0.17665641425E+02 0.17219293305E+02 0.16851975921E+02
 0.16570202210E+02 0.16380069676E+02 0.16284630674E+02 0.16284630509E+02 0.16380067965E+02
 0.16570196342E+02 0.16851963428E+02 0.17219272133E+02 0.17665610081E+02 0.18190143286E+02
 0.18804086478E+02 0.16997621331E+02 0.17867703249E+02 0.18786334455E+02 0.19596419797E+02
 0.20124099872E+02 0.20197007823E+02 0.19666497061E+02 0.18431924731E+02 0.16462985505E+02
 0.13815289426E+02 0.10635222251E+02 0.71521821599E+01 0.36584183869E+01 0.47815226883E+00
 -.20712252168E+01 -.37214593127E+01 -.42926470447E+01 -.37213937398E+01 -.20710997389E+01
 0.47832847937E+00 0.36586335556E+01 0.71524215216E+01 0.10635469649E+02 0.13815530615E+02
 0.16463209462E+02 0.18432122827E+02 0.19666663429E+02 0.20197141027E+02 0.20124202755E+02
 0.19596497624E+02 0.18786394237E+02 0.17867753605E+02 0.16997669810E+02 0.16263095520E+02
 0.15646510033E+02 0.15128118250E+02 0.14700642271E+02 0.14365017414E+02 0.14124378266E+02
 0.13980263101E+02 0.13932368643E+02 0.13980261536E+02 0.14124372818E+02 0.14365005792E+02
 0.14700623011E+02 0.15128089814E+02 0.15646471749E+02 0.16263049803E+02 0.14592681835E+02
 0.15442925797E+02 0.16423828075E+02 0.17422115066E+02 0.18291749953E+02 0.18869632623E+02
 0.18988613211E+02 0.18498111132E+02 0.17290961189E+02 0.15331561740E+02 0.12678305753E+02
 0.94935839901E+01 0.60369455722E+01 0.26401399200E+01 -.33399460651E+00 -.25434973796E+01
 -.37214593095E+01 -.37214241358E+01 -.25433960453E+01 -.33383693813E+00 0.26403422152E+01
 0.60371787170E+01 0.94938313662E+01 0.12678550910E+02 0.15331791881E+02 0.17291166912E+02
 0.18498285431E+02 0.18988753344E+02 0.18869741496E+02 0.18291833450E+02 0.17422179066E+02
 0.16423879048E+02 0.15442971466E+02 0.14592726577E+02 0.13887254709E+02 0.13300374139E+02
 0.12817001683E+02 0.12431879184E+02 0.12144462942E+02 0.11954427653E+02 0.11860205919E+02