   4   4   0   0
  0.2084870E+02  0.3880357E-09  0.3880357E-09  0.6395361E-09  0.5000000E-15
  1.000000000000000E-004
  CAR 
 Band structure                          
      9.14393083     -9.73876427  301      3.68368483      1.00000000
     -9.739  0.0000E+00  0.0000E+00
     -9.676  0.0000E+00  0.0000E+00
     -9.613  0.0000E+00  0.0000E+00
     -9.550  0.0000E+00  0.0000E+00
     -9.487  0.0000E+00  0.0000E+00
     -9.424  0.0000E+00  0.0000E+00
     -9.361  0.0000E+00  0.0000E+00
     -9.298  0.0000E+00  0.0000E+00
     -9.235  0.0000E+00  0.0000E+00
     -9.172  0.0000E+00  0.0000E+00
     -9.109  0.0000E+00  0.0000E+00
     -9.046  0.0000E+00  0.0000E+00
     -8.983  0.0000E+00  0.0000E+00
     -8.921  0.3795E-08  0.2389E-09
     -8.858  0.1851E+01  0.1165E+00
     -8.795  0.3097E+01  0.3117E+00
     -8.732  0.8949E+01  0.8750E+00
     -8.669  0.4935E-09  0.8750E+00
     -8.606  0.1031E+02  0.1524E+01
     -8.543  0.2574E+01  0.1687E+01
     -8.480  0.4972E+01  0.2000E+01
     -8.417  0.0000E+00  0.2000E+01
     -8.354  0.0000E+00  0.2000E+01
     -8.291  0.0000E+00  0.2000E+01
     -8.228  0.0000E+00  0.2000E+01
     -8.165  0.0000E+00  0.2000E+01
     -8.102  0.0000E+00  0.2000E+01
     -8.039  0.0000E+00  0.2000E+01
     -7.976  0.0000E+00  0.2000E+01
     -7.913  0.0000E+00  0.2000E+01
     -7.850  0.0000E+00  0.2000E+01
     -7.788  0.0000E+00  0.2000E+01
     -7.725  0.0000E+00  0.2000E+01
     -7.662  0.0000E+00  0.2000E+01
     -7.599  0.0000E+00  0.2000E+01
     -7.536  0.0000E+00  0.2000E+01
     -7.473  0.0000E+00  0.2000E+01
     -7.410  0.0000E+00  0.2000E+01
     -7.347  0.0000E+00  0.2000E+01
     -7.284  0.0000E+00  0.2000E+01
     -7.221  0.0000E+00  0.2000E+01
     -7.158  0.0000E+00  0.2000E+01
     -7.095  0.0000E+00  0.2000E+01
     -7.032  0.4281E-09  0.2000E+01
     -6.969  0.4967E+00  0.2031E+01
     -6.906  0.3868E+01  0.2275E+01
     -6.843  0.9442E+01  0.2869E+01
     -6.780  0.1067E+00  0.2876E+01
     -6.718  0.7340E+01  0.3338E+01
     -6.655  0.6692E+01  0.3759E+01
     -6.592  0.3828E+01  0.4000E+01
     -6.529  0.0000E+00  0.4000E+01
     -6.466  0.0000E+00  0.4000E+01
     -6.403  0.0000E+00  0.4000E+01
     -6.340  0.0000E+00  0.4000E+01
     -6.277  0.0000E+00  0.4000E+01
     -6.214  0.0000E+00  0.4000E+01
     -6.151  0.0000E+00  0.4000E+01
     -6.088  0.0000E+00  0.4000E+01
     -6.025  0.0000E+00  0.4000E+01
     -5.962  0.0000E+00  0.4000E+01
     -5.899  0.0000E+00  0.4000E+01
     -5.836  0.0000E+00  0.4000E+01
     -5.773  0.0000E+00  0.4000E+01
     -5.710  0.0000E+00  0.4000E+01
     -5.648  0.0000E+00  0.4000E+01
     -5.585  0.0000E+00  0.4000E+01
     -5.522  0.0000E+00  0.4000E+01
     -5.459  0.0000E+00  0.4000E+01
     -5.396  0.0000E+00  0.4000E+01
     -5.333  0.0000E+00  0.4000E+01
     -5.270  0.0000E+00  0.4000E+01
     -5.207  0.0000E+00  0.4000E+01
     -5.144  0.0000E+00  0.4000E+01
     -5.081  0.0000E+00  0.4000E+01
     -5.018  0.0000E+00  0.4000E+01
     -4.955  0.0000E+00  0.4000E+01
     -4.892  0.0000E+00  0.4000E+01
     -4.829  0.0000E+00  0.4000E+01
     -4.766  0.0000E+00  0.4000E+01
     -4.703  0.0000E+00  0.4000E+01
     -4.640  0.0000E+00  0.4000E+01
     -4.577  0.0000E+00  0.4000E+01
     -4.515  0.0000E+00  0.4000E+01
     -4.452  0.0000E+00  0.4000E+01
     -4.389  0.0000E+00  0.4000E+01
     -4.326  0.0000E+00  0.4000E+01
     -4.263  0.0000E+00  0.4000E+01
     -4.200  0.0000E+00  0.4000E+01
     -4.137  0.0000E+00  0.4000E+01
     -4.074  0.0000E+00  0.4000E+01
     -4.011  0.0000E+00  0.4000E+01
     -3.948  0.0000E+00  0.4000E+01
     -3.885  0.0000E+00  0.4000E+01
     -3.822  0.0000E+00  0.4000E+01
     -3.759  0.0000E+00  0.4000E+01
     -3.696  0.0000E+00  0.4000E+01
     -3.633  0.0000E+00  0.4000E+01
     -3.570  0.0000E+00  0.4000E+01
     -3.507  0.0000E+00  0.4000E+01
     -3.445  0.0000E+00  0.4000E+01
     -3.382  0.0000E+00  0.4000E+01
     -3.319  0.0000E+00  0.4000E+01
     -3.256  0.6637E-08  0.4000E+01
     -3.193  0.9873E+00  0.4062E+01
     -3.130  0.9362E+01  0.4651E+01
     -3.067  0.7489E+01  0.5123E+01
     -3.004  0.9846E+01  0.5743E+01
     -2.941  0.4089E+01  0.6000E+01
     -2.878  0.0000E+00  0.6000E+01
     -2.815  0.0000E+00  0.6000E+01
     -2.752  0.0000E+00  0.6000E+01
     -2.689  0.0000E+00  0.6000E+01
     -2.626  0.0000E+00  0.6000E+01
     -2.563  0.0000E+00  0.6000E+01
     -2.500  0.0000E+00  0.6000E+01
     -2.437  0.0000E+00  0.6000E+01
     -2.375  0.0000E+00  0.6000E+01
     -2.312  0.0000E+00  0.6000E+01
     -2.249  0.0000E+00  0.6000E+01
     -2.186  0.0000E+00  0.6000E+01
     -2.123  0.0000E+00  0.6000E+01
     -2.060  0.0000E+00  0.6000E+01
     -1.997  0.0000E+00  0.6000E+01
     -1.934  0.0000E+00  0.6000E+01
     -1.871  0.0000E+00  0.6000E+01
     -1.808  0.0000E+00  0.6000E+01
     -1.745  0.0000E+00  0.6000E+01
     -1.682  0.0000E+00  0.6000E+01
     -1.619  0.0000E+00  0.6000E+01
     -1.556  0.0000E+00  0.6000E+01
     -1.493  0.0000E+00  0.6000E+01
     -1.430  0.0000E+00  0.6000E+01
     -1.367  0.0000E+00  0.6000E+01
     -1.304  0.0000E+00  0.6000E+01
     -1.242  0.0000E+00  0.6000E+01
     -1.179  0.0000E+00  0.6000E+01
     -1.116  0.0000E+00  0.6000E+01
     -1.053  0.0000E+00  0.6000E+01
     -0.990  0.0000E+00  0.6000E+01
     -0.927  0.0000E+00  0.6000E+01
     -0.864  0.0000E+00  0.6000E+01
     -0.801  0.0000E+00  0.6000E+01
     -0.738  0.0000E+00  0.6000E+01
     -0.675  0.0000E+00  0.6000E+01
     -0.612  0.0000E+00  0.6000E+01
     -0.549  0.0000E+00  0.6000E+01
     -0.486  0.0000E+00  0.6000E+01
     -0.423  0.0000E+00  0.6000E+01
     -0.360  0.0000E+00  0.6000E+01
     -0.297  0.0000E+00  0.6000E+01
     -0.234  0.0000E+00  0.6000E+01
     -0.172  0.0000E+00  0.6000E+01
     -0.109  0.0000E+00  0.6000E+01
     -0.046  0.0000E+00  0.6000E+01
      0.017  0.0000E+00  0.6000E+01
      0.080  0.0000E+00  0.6000E+01
      0.143  0.0000E+00  0.6000E+01
      0.206  0.0000E+00  0.6000E+01
      0.269  0.0000E+00  0.6000E+01
      0.332  0.0000E+00  0.6000E+01
      0.395  0.1267E+01  0.6080E+01
      0.458  0.4691E+01  0.6375E+01
      0.521  0.0000E+00  0.6375E+01
      0.584  0.0000E+00  0.6375E+01
      0.647  0.6320E-12  0.6375E+01
      0.710  0.7925E+01  0.6874E+01
      0.773  0.3990E+01  0.7125E+01
      0.836  0.0000E+00  0.7125E+01
      0.898  0.0000E+00  0.7125E+01
      0.961  0.0000E+00  0.7125E+01
      1.024  0.0000E+00  0.7125E+01
      1.087  0.0000E+00  0.7125E+01
      1.150  0.0000E+00  0.7125E+01
      1.213  0.0000E+00  0.7125E+01
      1.276  0.2988E-02  0.7125E+01
      1.339  0.2498E+01  0.7282E+01
      1.402  0.3457E+01  0.7500E+01
      1.465  0.0000E+00  0.7500E+01
      1.528  0.4272E-09  0.7500E+01
      1.591  0.1037E+02  0.8153E+01
      1.654  0.1009E+02  0.8789E+01
      1.717  0.6152E+01  0.9176E+01
      1.780  0.3165E+01  0.9375E+01
      1.843  0.0000E+00  0.9375E+01
      1.906  0.1109E+01  0.9445E+01
      1.969  0.1080E+02  0.1012E+02
      2.031  0.0000E+00  0.1012E+02
      2.094  0.1185E-09  0.1013E+02
      2.157  0.1076E+02  0.1080E+02
      2.220  0.1151E+01  0.1088E+02
      2.283  0.0000E+00  0.1088E+02
      2.346  0.1703E+01  0.1098E+02
      2.409  0.2269E+01  0.1112E+02
      2.472  0.0000E+00  0.1112E+02
      2.535  0.0000E+00  0.1112E+02
      2.598  0.2363E-07  0.1113E+02
      2.661  0.2977E+01  0.1131E+02
      2.724  0.4047E-03  0.1131E+02
      2.787  0.6970E+01  0.1175E+02
      2.850  0.1966E+01  0.1188E+02
      2.913  0.0000E+00  0.1188E+02
      2.976  0.5609E-08  0.1188E+02
      3.039  0.2413E+01  0.1203E+02
      3.101  0.8906E+01  0.1259E+02
      3.164  0.1165E+02  0.1332E+02
      3.227  0.1019E+02  0.1396E+02
      3.290  0.3084E+01  0.1416E+02
      3.353  0.3112E+01  0.1435E+02
      3.416  0.9503E+01  0.1495E+02
      3.479  0.2837E+01  0.1513E+02
      3.542  0.9869E+01  0.1575E+02
      3.605  0.2878E+00  0.1577E+02
      3.668  0.3684E+01  0.1600E+02
      3.731  0.0000E+00  0.1600E+02
      3.794  0.0000E+00  0.1600E+02
      3.857  0.0000E+00  0.1600E+02
      3.920  0.0000E+00  0.1600E+02
      3.983  0.0000E+00  0.1600E+02
      4.046  0.0000E+00  0.1600E+02
      4.109  0.0000E+00  0.1600E+02
      4.171  0.0000E+00  0.1600E+02
      4.234  0.0000E+00  0.1600E+02
      4.297  0.0000E+00  0.1600E+02
      4.360  0.0000E+00  0.1600E+02
      4.423  0.0000E+00  0.1600E+02
      4.486  0.5512E-16  0.1600E+02
      4.549  0.8735E+00  0.1605E+02
      4.612  0.1112E+01  0.1612E+02
      4.675  0.0000E+00  0.1612E+02
      4.738  0.0000E+00  0.1612E+02
      4.801  0.0000E+00  0.1612E+02
      4.864  0.0000E+00  0.1612E+02
      4.927  0.0000E+00  0.1612E+02
      4.990  0.0000E+00  0.1612E+02
      5.053  0.5192E-02  0.1613E+02
      5.116  0.4915E+00  0.1616E+02
      5.179  0.9931E+00  0.1622E+02
      5.242  0.1191E+02  0.1697E+02
      5.304  0.2391E-01  0.1697E+02
      5.367  0.4726E+00  0.1700E+02
      5.430  0.0000E+00  0.1700E+02
      5.493  0.0000E+00  0.1700E+02
      5.556  0.0000E+00  0.1700E+02
      5.619  0.6249E-02  0.1700E+02
      5.682  0.8504E+01  0.1754E+02
      5.745  0.1238E+02  0.1831E+02
      5.808  0.8756E+01  0.1887E+02
      5.871  0.1214E+00  0.1888E+02
      5.934  0.0000E+00  0.1888E+02
      5.997  0.0000E+00  0.1888E+02
      6.060  0.9425E-02  0.1888E+02
      6.123  0.1191E+02  0.1962E+02
      6.186  0.1104E+00  0.1963E+02
      6.249  0.5847E+01  0.2000E+02
      6.312  0.0000E+00  0.2000E+02
      6.374  0.0000E+00  0.2000E+02
      6.437  0.0000E+00  0.2000E+02
      6.500  0.0000E+00  0.2000E+02
      6.563  0.0000E+00  0.2000E+02
      6.626  0.0000E+00  0.2000E+02
      6.689  0.1149E-03  0.2000E+02
      6.752  0.1211E+02  0.2076E+02
      6.815  0.8931E+01  0.2132E+02
      6.878  0.1067E+02  0.2200E+02
      6.941  0.1744E+00  0.2201E+02
      7.004  0.1369E+01  0.2209E+02
      7.067  0.6718E-02  0.2209E+02
      7.130  0.1186E+02  0.2284E+02
      7.193  0.4517E-01  0.2284E+02
      7.256  0.4960E+00  0.2287E+02
      7.319  0.0000E+00  0.2288E+02
      7.382  0.0000E+00  0.2288E+02
      7.444  0.0000E+00  0.2288E+02
      7.507  0.1386E-03  0.2288E+02
      7.570  0.1028E+02  0.2352E+02
      7.633  0.1638E+01  0.2363E+02
      7.696  0.3392E+01  0.2384E+02
      7.759  0.2566E+01  0.2400E+02
      7.822  0.0000E+00  0.2400E+02
      7.885  0.0000E+00  0.2400E+02
      7.948  0.0000E+00  0.2400E+02
      8.011  0.0000E+00  0.2400E+02
      8.074  0.0000E+00  0.2400E+02
      8.137  0.0000E+00  0.2400E+02
      8.200  0.0000E+00  0.2400E+02
      8.263  0.0000E+00  0.2400E+02
      8.326  0.0000E+00  0.2400E+02
      8.389  0.0000E+00  0.2400E+02
      8.452  0.0000E+00  0.2400E+02
      8.515  0.0000E+00  0.2400E+02
      8.577  0.0000E+00  0.2400E+02
      8.640  0.0000E+00  0.2400E+02
      8.703  0.0000E+00  0.2400E+02
      8.766  0.0000E+00  0.2400E+02
      8.829  0.0000E+00  0.2400E+02
      8.892  0.0000E+00  0.2400E+02
      8.955  0.0000E+00  0.2400E+02
      9.018  0.0000E+00  0.2400E+02
      9.081  0.0000E+00  0.2400E+02
      9.144  0.0000E+00  0.2400E+02
