    4    4    1    1
  0.2084870E+02  0.3880357E-09  0.3880357E-09  0.6395361E-09  0.5000000E-15
  1.000000000000000E-004
  CAR 
 Band structure                          
     16     72     12
 
  0.0000000E+00  0.0000000E+00  0.0000000E+00  0.1562500E-01
    1       -8.880460   1.000000
    2       -6.933594   1.000000
    3       -3.216379   1.000000
    4        2.342651   1.000000
    5        2.342702   1.000000
    6        3.495398   1.000000
    7        3.635819   1.000000
    8        3.635859   1.000000
    9        4.544299   0.000000
   10        5.069011   0.000000
   11        6.846100   0.000000
   12        6.846135   0.000000
 
  0.6442700E-01  0.3719700E-01  0.0000000E+00  0.9375000E-01
    1       -8.794459   1.000000
    2       -6.856586   1.000000
    3       -3.166905   1.000000
    4        1.572530   1.000000
    5        2.140432   1.000000
    6        2.789674   1.000000
    7        3.383663   1.000000
    8        3.501423   1.000000
    9        5.204978   0.000000
   10        5.639406   0.000000
   11        6.717135   0.000000
   12        7.087049   0.000000
 
  0.1288540E+00  0.7439400E-01  0.0000000E+00  0.4687500E-01
    1       -8.540184   1.000000
    2       -6.635136   1.000000
    3       -3.051542   1.000000
    4        0.395342   1.000000
    5        1.356392   1.000000
    6        1.721852   1.000000
    7        3.050335   1.000000
    8        3.098559   1.000000
    9        5.798124   0.000000
   10        6.220850   0.000000
   11        6.823193   0.000000
   12        7.679576   0.000000
 
  0.6442700E-01  0.1115910E+00  0.0000000E+00  0.9375000E-01
    1       -8.624287   1.000000
    2       -6.707224   1.000000
    3       -3.083880   1.000000
    4        0.697971   1.000000
    5        1.656961   1.000000
    6        1.947014   1.000000
    7        3.159915   1.000000
    8        3.229399   1.000000
    9        5.708294   0.000000
   10        6.084523   0.000000
   11        6.737587   0.000000
   12        7.535071   0.000000
 
  0.0000000E+00  0.0000000E+00  0.3909100E-01  0.3125000E-01
    1       -8.875867   1.000000
    2       -6.947904   1.000000
    3       -3.192658   1.000000
    4        2.346377   1.000000
    5        2.346427   1.000000
    6        3.412389   1.000000
    7        3.629030   1.000000
    8        3.629070   1.000000
    9        4.549242   0.000000
   10        5.140462   0.000000
   11        6.851930   0.000000
   12        6.851961   0.000000
 
  0.6442700E-01  0.3719700E-01  0.3909100E-01  0.1875000E+00
    1       -8.789871   1.000000
    2       -6.870802   1.000000
    3       -3.143582   1.000000
    4        1.576967   1.000000
    5        2.143919   1.000000
    6        2.750795   1.000000
    7        3.367435   1.000000
    8        3.494178   1.000000
    9        5.209293   0.000000
   10        5.671826   0.000000
   11        6.728869   0.000000
   12        7.093911   0.000000
 
  0.1288540E+00  0.7439400E-01  0.3909100E-01  0.9375000E-01
    1       -8.535650   1.000000
    2       -6.648972   1.000000
    3       -3.029914   1.000000
    4        0.401254   1.000000
    5        1.342080   1.000000
    6        1.718016   1.000000
    7        3.042505   1.000000
    8        3.090959   1.000000
    9        5.790906   0.000000
   10        6.210935   0.000000
   11        6.859111   0.000000
   12        7.693663   0.000000
 
  0.6442700E-01  0.1115910E+00  0.3909100E-01  0.1875000E+00
    1       -8.619732   1.000000
    2       -6.721200   1.000000
    3       -3.061590   1.000000
    4        0.703355   1.000000
    5        1.648510   1.000000
    6        1.934892   1.000000
    7        3.148853   1.000000
    8        3.221670   1.000000
    9        5.706215   0.000000
   10        6.081739   0.000000
   11        6.769636   0.000000
   12        7.544245   0.000000
 
  0.0000000E+00  0.0000000E+00  0.7818200E-01  0.1562500E-01
    1       -8.862076   1.000000
    2       -6.989664   1.000000
    3       -3.122668   1.000000
    4        2.357530   1.000000
    5        2.357581   1.000000
    6        3.199125   1.000000
    7        3.608918   1.000000
    8        3.608957   1.000000
    9        4.564059   0.000000
   10        5.316209   0.000000
   11        6.869308   0.000000
   12        7.233771   0.000000
 
  0.6442700E-01  0.3719700E-01  0.7818200E-01  0.9375000E-01
    1       -8.776119   1.000000
    2       -6.912286   1.000000
    3       -3.074771   1.000000
    4        1.590246   1.000000
    5        2.154028   1.000000
    6        2.637895   1.000000
    7        3.322900   1.000000
    8        3.472704   1.000000
    9        5.222314   0.000000
   10        5.761002   0.000000
   11        6.762490   0.000000
   12        7.114462   0.000000
 
  0.1288540E+00  0.7439400E-01  0.7818200E-01  0.4687500E-01
    1       -8.522054   1.000000
    2       -6.689400   1.000000
    3       -2.966194   1.000000
    4        0.418996   1.000000
    5        1.296486   1.000000
    6        1.711181   1.000000
    7        3.016445   1.000000
    8        3.068273   1.000000
    9        5.771937   0.000000
   10        6.195883   0.000000
   11        6.950853   0.000000
   12        7.733266   0.000000
 
  0.6442700E-01  0.1115910E+00  0.7818200E-01  0.9375000E-01
    1       -8.606083   1.000000
    2       -6.762024   1.000000
    3       -2.995876   1.000000
    4        0.719496   1.000000
    5        1.615959   1.000000
    6        1.907871   1.000000
    7        3.113930   1.000000
    8        3.198621   1.000000
    9        5.702308   0.000000
   10        6.081498   0.000000
   11        6.855099   0.000000
   12        7.571257   0.000000
 
  0.0000000E+00  0.0000000E+00  0.5000000E+00  0.0000000E+00
    1       -8.158346   1.000000
    2       -8.158345   1.000000
    3       -0.496015   1.000000
    4       -0.496013   1.000000
    5        2.895151   1.000000
    6        2.895154   1.000000
    7        2.895198   1.000000
    8        2.895201   1.000000
    9        5.317710   0.000000
   10        5.317715   0.000000
   11        7.642700   0.000000
   12        7.642705   0.000000
 
  0.0000000E+00  0.3125000E-01  0.5000000E+00  0.0000000E+00
    1       -8.148035   1.000000
    2       -8.148034   1.000000
    3       -0.497956   1.000000
    4       -0.497954   1.000000
    5        2.792810   1.000000
    6        2.792812   1.000000
    7        2.873768   1.000000
    8        2.873771   1.000000
    9        5.415221   0.000000
   10        5.415225   0.000000
   11        7.612607   0.000000
   12        7.612610   0.000000
 
  0.0000000E+00  0.6250000E-01  0.5000000E+00  0.0000000E+00
    1       -8.117179   1.000000
    2       -8.117178   1.000000
    3       -0.505752   1.000000
    4       -0.505750   1.000000
    5        2.532776   1.000000
    6        2.532778   1.000000
    7        2.812046   1.000000
    8        2.812049   1.000000
    9        5.652635   0.000000
   10        5.652638   0.000000
   11        7.523889   0.000000
   12        7.523893   0.000000
 
  0.0000000E+00  0.9375000E-01  0.5000000E+00  0.0000000E+00
    1       -8.065995   1.000000
    2       -8.065994   1.000000
    3       -0.525675   1.000000
    4       -0.525673   1.000000
    5        2.197840   1.000000
    6        2.197842   1.000000
    7        2.716687   1.000000
    8        2.716689   1.000000
    9        5.916161   0.000000
   10        5.916163   0.000000
   11        7.456642   0.000000
   12        7.456646   0.000000
 
  0.0000000E+00  0.1250000E+00  0.5000000E+00  0.0000000E+00
    1       -7.994873   1.000000
    2       -7.994871   1.000000
    3       -0.569498   1.000000
    4       -0.569496   1.000000
    5        1.851407   1.000000
    6        1.851409   1.000000
    7        2.596589   1.000000
    8        2.596591   1.000000
    9        6.083498   0.000000
   10        6.083499   0.000000
   11        7.493993   0.000000
   12        7.493997   0.000000
 
  0.0000000E+00  0.1562500E+00  0.5000000E+00  0.0000000E+00
    1       -7.904407   1.000000
    2       -7.904406   1.000000
    3       -0.655023   1.000000
    4       -0.655020   1.000000
    5        1.538974   1.000000
    6        1.538977   1.000000
    7        2.460919   1.000000
    8        2.460921   1.000000
    9        6.088381   0.000000
   10        6.088381   0.000000
   11        7.664083   0.000000
   12        7.664088   0.000000
 
  0.0000000E+00  0.1875000E+00  0.5000000E+00  0.0000000E+00
    1       -7.795469   1.000000
    2       -7.795468   1.000000
    3       -0.802152   1.000000
    4       -0.802149   1.000000
    5        1.295342   1.000000
    6        1.295345   1.000000
    7        2.317889   1.000000
    8        2.317890   1.000000
    9        5.977323   0.000000
   10        5.977324   0.000000
   11        7.842044   0.000000
   12        7.842047   0.000000
 
  0.0000000E+00  0.2187500E+00  0.5000000E+00  0.0000000E+00
    1       -7.669274   1.000000
    2       -7.669272   1.000000
    3       -1.021282   1.000000
    4       -1.021279   1.000000
    5        1.139437   1.000000
    6        1.139440   1.000000
    7        2.174316   1.000000
    8        2.174317   1.000000
    9        5.817847   0.000000
   10        5.817848   0.000000
   11        7.860217   0.000000
   12        7.860218   0.000000
 
  0.0000000E+00  0.2500000E+00  0.5000000E+00  0.0000000E+00
    1       -7.527511   1.000000
    2       -7.527509   1.000000
    3       -1.303408   1.000000
    4       -1.303404   1.000000
    5        1.067532   1.000000
    6        1.067536   1.000000
    7        2.035621   1.000000
    8        2.035623   1.000000
    9        5.646991   0.000000
   10        5.646993   0.000000
   11        7.706999   0.000000
   12        7.707000   0.000000
 
  0.0000000E+00  0.2812500E+00  0.5000000E+00  0.0000000E+00
    1       -7.372594   1.000000
    2       -7.372592   1.000000
    3       -1.625659   1.000000
    4       -1.625654   1.000000
    5        1.060239   1.000000
    6        1.060242   1.000000
    7        1.905983   1.000000
    8        1.905984   1.000000
    9        5.482056   0.000000
   10        5.482058   0.000000
   11        7.470492   0.000000
   12        7.470493   0.000000
 
  0.0000000E+00  0.3125000E+00  0.5000000E+00  0.0000000E+00
    1       -7.207971   1.000000
    2       -7.207968   1.000000
    3       -1.963535   1.000000
    4       -1.963530   1.000000
    5        1.095691   1.000000
    6        1.095695   1.000000
    7        1.788624   1.000000
    8        1.788625   1.000000
    9        5.331553   0.000000
   10        5.331555   0.000000
   11        7.209315   0.000000
   12        7.209316   0.000000
 
  0.0000000E+00  0.3437500E+00  0.5000000E+00  0.0000000E+00
    1       -7.038592   1.000000
    2       -7.038589   1.000000
    3       -2.296371   1.000000
    4       -2.296366   1.000000
    5        1.155710   1.000000
    6        1.155714   1.000000
    7        1.685961   1.000000
    8        1.685962   1.000000
    9        5.200011   0.000000
   10        5.200013   0.000000
   11        6.953406   0.000000
   12        6.953408   0.000000
 
  0.0000000E+00  0.3750000E+00  0.5000000E+00  0.0000000E+00
    1       -6.871587   1.000000
    2       -6.871583   1.000000
    3       -2.606659   1.000000
    4       -2.606652   1.000000
    5        1.226019   1.000000
    6        1.226023   1.000000
    7        1.599833   1.000000
    8        1.599834   1.000000
    9        5.090010   0.000000
   10        5.090013   0.000000
   11        6.720850   0.000000
   12        6.720852   0.000000
 
  0.0000000E+00  0.4062500E+00  0.5000000E+00  0.0000000E+00
    1       -6.717053   1.000000
    2       -6.717049   1.000000
    3       -2.877716   1.000000
    4       -2.877709   1.000000
    5        1.294895   1.000000
    6        1.294899   1.000000
    7        1.531587   1.000000
    8        1.531588   1.000000
    9        5.003118   0.000000
   10        5.003121   0.000000
   11        6.524879   0.000000
   12        6.524881   0.000000
 
  0.0000000E+00  0.4375000E+00  0.5000000E+00  0.0000000E+00
    1       -6.588503   1.000000
    2       -6.588498   1.000000
    3       -3.091910   1.000000
    4       -3.091903   1.000000
    5        1.352430   1.000000
    6        1.352434   1.000000
    7        1.482196   1.000000
    8        1.482196   1.000000
    9        4.940357   0.000000
   10        4.940359   0.000000
   11        6.376192   0.000000
   12        6.376193   0.000000
 
  0.0000000E+00  0.4687500E+00  0.5000000E+00  0.0000000E+00
    1       -6.501791   1.000000
    2       -6.501786   1.000000
    3       -3.230901   1.000000
    4       -3.230894   1.000000
    5        1.390586   1.000000
    6        1.390590   1.000000
    7        1.452311   1.000000
    8        1.452311   1.000000
    9        4.902411   0.000000
   10        4.902413   0.000000
   11        6.283226   0.000000
   12        6.283228   0.000000
 
  0.0000000E+00  0.5000000E+00  0.5000000E+00  0.0000000E+00
    1       -6.470961   1.000000
    2       -6.470955   1.000000
    3       -3.279319   1.000000
    4       -3.279311   1.000000
    5        1.403947   1.000000
    6        1.403951   1.000000
    7        1.442308   1.000000
    8        1.442309   1.000000
    9        4.889711   0.000000
   10        4.889712   0.000000
   11        6.251577   0.000000
   12        6.251579   0.000000
 
  0.0000000E+00  0.5000000E+00  0.4375000E+00  0.0000000E+00
    1       -6.572701   1.000000
    2       -6.367492   1.000000
    3       -3.382348   1.000000
    4       -3.149286   1.000000
    5        1.086689   1.000000
    6        1.302341   1.000000
    7        1.591766   1.000000
    8        1.645280   1.000000
    9        4.745478   0.000000
   10        5.001879   0.000000
   11        6.339888   0.000000
   12        6.346425   0.000000
 
  0.0000000E+00  0.5000000E+00  0.3750000E+00  0.0000000E+00
    1       -6.668412   1.000000
    2       -6.267213   1.000000
    3       -3.454585   1.000000
    4       -2.997725   1.000000
    5        0.736872   1.000000
    6        1.175420   1.000000
    7        1.746106   1.000000
    8        1.762264   1.000000
    9        4.690510   0.000000
   10        5.009738   0.000000
   11        6.530228   0.000000
   12        6.659105   0.000000
 
  0.0000000E+00  0.5000000E+00  0.3125000E+00  0.0000000E+00
    1       -6.754556   1.000000
    2       -6.175198   1.000000
    3       -3.494400   1.000000
    4       -2.831811   1.000000
    5        0.385556   1.000000
    6        1.064258   1.000000
    7        1.734661   1.000000
    8        1.899422   1.000000
    9        4.787184   0.000000
   10        4.949093   0.000000
   11        6.766817   0.000000
   12        7.127629   0.000000
 
  0.0000000E+00  0.5000000E+00  0.2500000E+00  0.0000000E+00
    1       -6.828350   1.000000
    2       -6.096016   1.000000
    3       -3.503432   1.000000
    4       -2.661013   1.000000
    5        0.055766   1.000000
    6        0.970912   1.000000
    7        1.596397   1.000000
    8        2.044375   1.000000
    9        4.869408   0.000000
   10        5.019992   0.000000
   11        7.005742   0.000000
   12        7.683795   0.000000
 
  0.0000000E+00  0.5000000E+00  0.1875000E+00  0.0000000E+00
    1       -6.887697   1.000000
    2       -6.033007   1.000000
    3       -3.487873   1.000000
    4       -2.498019   1.000000
    5       -0.232632   1.000000
    6        0.896889   1.000000
    7        1.409724   1.000000
    8        2.172217   1.000000
    9        4.795642   0.000000
   10        5.335293   0.000000
   11        7.190259   0.000000
   12        8.285627   0.000000
 
  0.0000000E+00  0.5000000E+00  0.1250000E+00  0.0000000E+00
    1       -6.931086   1.000000
    2       -5.987882   1.000000
    3       -3.459103   1.000000
    4       -2.359362   1.000000
    5       -0.460134   1.000000
    6        0.843287   1.000000
    7        1.231589   1.000000
    8        2.273361   1.000000
    9        4.738590   0.000000
   10        5.676794   0.000000
   11        7.249890   0.000000
   12        8.085252   0.000000
 
  0.0000000E+00  0.5000000E+00  0.6250000E-01  0.0000000E+00
    1       -6.957504   1.000000
    2       -5.961001   1.000000
    3       -3.432259   1.000000
    4       -2.264382   1.000000
    5       -0.607386   1.000000
    6        0.810844   1.000000
    7        1.105206   1.000000
    8        2.338643   1.000000
    9        4.703012   0.000000
   10        5.977810   0.000000
   11        7.175169   0.000000
   12        7.952632   0.000000
 
  0.0000000E+00  0.5000000E+00  0.0000000E+00  0.0000000E+00
    1       -6.966372   1.000000
    2       -5.952104   1.000000
    3       -3.421348   1.000000
    4       -2.230324   1.000000
    5       -0.658584   1.000000
    6        0.799993   1.000000
    7        1.059529   1.000000
    8        2.361252   1.000000
    9        4.690961   0.000000
   10        6.114601   0.000000
   11        7.105822   0.000000
   12        7.907547   0.000000
 
  0.0000000E+00  0.4687500E+00  0.0000000E+00  0.0000000E+00
    1       -7.013337   1.000000
    2       -5.938344   1.000000
    3       -3.426532   1.000000
    4       -2.162132   1.000000
    5       -0.682766   1.000000
    6        0.810270   1.000000
    7        1.103343   1.000000
    8        2.370771   1.000000
    9        4.700768   0.000000
   10        6.122440   0.000000
   11        7.114972   0.000000
   12        7.911059   0.000000
 
  0.0000000E+00  0.4375000E+00  0.0000000E+00  0.0000000E+00
    1       -7.137011   1.000000
    2       -5.915451   1.000000
    3       -3.424863   1.000000
    4       -1.975720   1.000000
    5       -0.744031   1.000000
    6        0.841012   1.000000
    7        1.225075   1.000000
    8        2.399203   1.000000
    9        4.729811   0.000000
   10        6.145381   0.000000
   11        7.142294   0.000000
   12        7.920888   0.000000
 
  0.0000000E+00  0.4062500E+00  0.0000000E+00  0.0000000E+00
    1       -7.305440   1.000000
    2       -5.915238   1.000000
    3       -3.388824   1.000000
    4       -1.705750   1.000000
    5       -0.815818   1.000000
    6        0.891861   1.000000
    7        1.403515   1.000000
    8        2.446089   1.000000
    9        4.776963   0.000000
   10        6.181531   0.000000
   11        7.187123   0.000000
   12        7.934795   0.000000
 
  0.0000000E+00  0.3750000E+00  0.0000000E+00  0.0000000E+00
    1       -7.493906   1.000000
    2       -5.954604   1.000000
    3       -3.310690   1.000000
    4       -1.383113   1.000000
    5       -0.864741   1.000000
    6        0.962217   1.000000
    7        1.617867   1.000000
    8        2.510674   1.000000
    9        4.840480   0.000000
   10        6.227298   0.000000
   11        7.247462   0.000000
   12        7.948787   0.000000
 
  0.0000000E+00  0.3437500E+00  0.0000000E+00  0.0000000E+00
    1       -7.687251   1.000000
    2       -6.032005   1.000000
    3       -3.206805   1.000000
    4       -1.059654   1.000000
    5       -0.827151   1.000000
    6        1.051180   1.000000
    7        1.852069   1.000000
    8        2.591845   1.000000
    9        4.918194   0.000000
   10        6.276746   0.000000
   11        7.318543   0.000000
   12        7.956697   0.000000
 
  0.0000000E+00  0.3125000E+00  0.0000000E+00  0.0000000E+00
    1       -7.876409   1.000000
    2       -6.136246   1.000000
    3       -3.106388   1.000000
    4       -0.886395   1.000000
    5       -0.536251   1.000000
    6        1.157493   1.000000
    7        2.094101   1.000000
    8        2.688014   1.000000
    9        5.007740   0.000000
   10        6.320847   0.000000
   11        7.391596   0.000000
   12        7.950098   0.000000
 
  0.0000000E+00  0.2812500E+00  0.0000000E+00  0.0000000E+00
    1       -8.055789   1.000000
    2       -6.254669   1.000000
    3       -3.035750   1.000000
    4       -0.723911   1.000000
    5       -0.120369   1.000000
    6        1.279451   1.000000
    7        2.334502   1.000000
    8        2.797074   1.000000
    9        5.106668   0.000000
   10        6.347517   0.000000
   11        7.456846   0.000000
   12        7.923205   0.000000
 
  0.0000000E+00  0.2500000E+00  0.0000000E+00  0.0000000E+00
    1       -8.221713   1.000000
    2       -6.376884   1.000000
    3       -3.005904   1.000000
    4       -0.482317   1.000000
    5        0.327792   1.000000
    6        1.414767   1.000000
    7        2.565258   1.000000
    8        2.916230   1.000000
    9        5.211992   0.000000
   10        6.343972   0.000000
   11        7.512932   0.000000
   12        7.869336   0.000000
 
  0.0000000E+00  0.2187500E+00  0.0000000E+00  0.0000000E+00
    1       -8.371724   1.000000
    2       -6.495332   1.000000
    3       -3.011831   1.000000
    4       -0.164822   1.000000
    5        0.794197   1.000000
    6        1.560396   1.000000
    7        2.779280   1.000000
    8        3.041869   1.000000
    9        5.318364   0.000000
   10        6.301276   0.000000
   11        7.565952   0.000000
   12        7.749427   0.000000
 
  0.0000000E+00  0.1875000E+00  0.0000000E+00  0.0000000E+00
    1       -8.504135   1.000000
    2       -6.604765   1.000000
    3       -3.041107   1.000000
    4        0.211136   1.000000
    5        1.272213   1.000000
    6        1.712275   1.000000
    7        2.970486   1.000000
    8        3.169405   1.000000
    9        5.413298   0.000000
   10        6.216088   0.000000
   11        7.428783   0.000000
   12        7.597556   0.000000
 
  0.0000000E+00  0.1562500E+00  0.0000000E+00  0.0000000E+00
    1       -8.617716   1.000000
    2       -6.701585   1.000000
    3       -3.081532   1.000000
    4        0.626572   1.000000
    5        1.755782   1.000000
    6        1.865029   1.000000
    7        3.134146   1.000000
    8        3.293162   1.000000
    9        5.466968   0.000000
   10        6.085650   0.000000
   11        7.097834   0.000000
   12        7.423491   0.000000
 
  0.0000000E+00  0.1250000E+00  0.0000000E+00  0.0000000E+00
    1       -8.711609   1.000000
    2       -6.783337   1.000000
    3       -3.123877   1.000000
    4        1.062948   1.000000
    5        2.011612   1.000000
    6        2.237461   1.000000
    7        3.267440   1.000000
    8        3.406592   1.000000
    9        5.421203   0.000000
   10        5.904187   0.000000
   11        6.850165   0.000000
   12        7.246592   0.000000
 
  0.0000000E+00  0.9375000E-01  0.0000000E+00  0.0000000E+00
    1       -8.785189   1.000000
    2       -6.848345   1.000000
    3       -3.161862   1.000000
    4        1.499144   1.000000
    5        2.143113   1.000000
    6        2.705822   1.000000
    7        3.369539   1.000000
    8        3.502805   1.000000
    9        5.225629   0.000000
   10        5.677292   0.000000
   11        6.755912   0.000000
   12        7.085036   0.000000
 
  0.0000000E+00  0.6250000E-01  0.0000000E+00  0.0000000E+00
    1       -8.838039   1.000000
    2       -6.895483   1.000000
    3       -3.191411   1.000000
    4        1.903410   1.000000
    5        2.249009   1.000000
    6        3.138853   1.000000
    7        3.441331   1.000000
    8        3.575606   1.000000
    9        4.930307   0.000000
   10        5.422808   0.000000
   11        6.774531   0.000000
   12        6.956589   0.000000
 
  0.0000000E+00  0.3125000E-01  0.0000000E+00  0.0000000E+00
    1       -8.869851   1.000000
    2       -6.924033   1.000000
    3       -3.210031   1.000000
    4        2.217003   1.000000
    5        2.318426   1.000000
    6        3.470333   1.000000
    7        3.499570   1.000000
    8        3.620662   1.000000
    9        4.658774   0.000000
   10        5.181901   0.000000
   11        6.823429   0.000000
   12        6.874376   0.000000
 
  0.0000000E+00  0.0000000E+00  0.0000000E+00  0.0000000E+00
    1       -8.880460   1.000000
    2       -6.933594   1.000000
    3       -3.216379   1.000000
    4        2.342651   1.000000
    5        2.342702   1.000000
    6        3.495398   1.000000
    7        3.635819   1.000000
    8        3.635859   1.000000
    9        4.544299   0.000000
   10        5.069010   0.000000
   11        6.846099   0.000000
   12        6.846387   0.000000
 
  0.0000000E+00  0.0000000E+00  0.6250000E-01  0.0000000E+00
    1       -8.868712   1.000000
    2       -6.969779   1.000000
    3       -3.156137   1.000000
    4        2.352167   1.000000
    5        2.352217   1.000000
    6        3.296293   1.000000
    7        3.618549   1.000000
    8        3.618589   1.000000
    9        4.556930   0.000000
   10        5.237638   0.000000
   11        6.860963   0.000000
   12        6.861032   0.000000
 
  0.0000000E+00  0.0000000E+00  0.1250000E+00  0.0000000E+00
    1       -8.833501   1.000000
    2       -7.071295   1.000000
    3       -2.982531   1.000000
    4        2.380554   1.000000
    5        2.380604   1.000000
    6        2.851136   1.000000
    7        3.568357   1.000000
    8        3.568398   1.000000
    9        4.594752   0.000000
   10        5.571304   0.000000
   11        6.904813   0.000000
   12        6.904932   0.000000
 
  0.0000000E+00  0.0000000E+00  0.1875000E+00  0.0000000E+00
    1       -8.775066   1.000000
    2       -7.221317   1.000000
    3       -2.712758   1.000000
    4        2.317121   1.000000
    5        2.427359   1.000000
    6        2.427409   1.000000
    7        3.489690   1.000000
    8        3.489732   1.000000
    9        4.657571   0.000000
   10        5.843885   0.000000
   11        6.975695   0.000000
   12        6.975921   0.000000
 
  0.0000000E+00  0.0000000E+00  0.2500000E+00  0.0000000E+00
    1       -8.693831   1.000000
    2       -7.401055   1.000000
    3       -2.366294   1.000000
    4        1.751990   1.000000
    5        2.491774   1.000000
    6        2.491824   1.000000
    7        3.388812   1.000000
    8        3.388855   1.000000
    9        4.745007   0.000000
   10        5.925465   0.000000
   11        7.070996   0.000000
   12        7.071057   0.000000
 
  0.0000000E+00  0.0000000E+00  0.3125000E+00  0.0000000E+00
    1       -8.590417   1.000000
    2       -7.594650   1.000000
    3       -1.959920   1.000000
    4        1.178165   1.000000
    5        2.572619   1.000000
    6        2.572669   1.000000
    7        3.272588   1.000000
    8        3.272632   1.000000
    9        4.856372   0.000000
   10        5.842952   0.000000
   11        7.187971   0.000000
   12        7.188012   0.000000
 
  0.0000000E+00  0.0000000E+00  0.3750000E+00  0.0000000E+00
    1       -8.465726   1.000000
    2       -7.790398   1.000000
    3       -1.506580   1.000000
    4        0.607302   1.000000
    5        2.668298   1.000000
    6        2.668347   1.000000
    7        3.147740   1.000000
    8        3.147785   1.000000
    9        4.990503   0.000000
   10        5.684269   0.000000
   11        7.324003   0.000000
   12        7.324070   0.000000
 
  0.0000000E+00  0.0000000E+00  0.4375000E+00  0.0000000E+00
    1       -8.321073   1.000000
    2       -7.980161   1.000000
    3       -1.016050   1.000000
    4        0.047126   1.000000
    5        2.776711   1.000000
    6        2.776760   1.000000
    7        3.020233   1.000000
    8        3.020279   1.000000
    9        5.145428   0.000000
   10        5.501213   0.000000
   11        7.476531   0.000000
   12        7.476839   0.000000
 
  0.0000000E+00  0.0000000E+00  0.5000000E+00  0.0000000E+00
    1       -8.158346   1.000000
    2       -8.158345   1.000000
    3       -0.496015   1.000000
    4       -0.496013   1.000000
    5        2.895151   1.000000
    6        2.895154   1.000000
    7        2.895198   1.000000
    8        2.895201   1.000000
    9        5.317710   0.000000
   10        5.317715   0.000000
   11        7.642700   0.000000
   12        7.642705   0.000000
 
 -0.3030300E-01  0.3030300E-01  0.5000000E+00  0.0000000E+00
    1       -8.148649   1.000000
    2       -8.148648   1.000000
    3       -0.497831   1.000000
    4       -0.497828   1.000000
    5        2.798686   1.000000
    6        2.798689   1.000000
    7        2.875002   1.000000
    8        2.875004   1.000000
    9        5.409703   0.000000
   10        5.409708   0.000000
   11        7.610314   0.000000
   12        7.610319   0.000000
 
 -0.6060600E-01  0.6060600E-01  0.5000000E+00  0.0000000E+00
    1       -8.119631   1.000000
    2       -8.119629   1.000000
    3       -0.505021   1.000000
    4       -0.505019   1.000000
    5        2.551469   1.000000
    6        2.551472   1.000000
    7        2.816794   1.000000
    8        2.816796   1.000000
    9        5.636266   0.000000
   10        5.636270   0.000000
   11        7.529211   0.000000
   12        7.529216   0.000000
 
 -0.9090900E-01  0.9090900E-01  0.5000000E+00  0.0000000E+00
    1       -8.071479   1.000000
    2       -8.071478   1.000000
    3       -0.523095   1.000000
    4       -0.523093   1.000000
    5        2.229581   1.000000
    6        2.229583   1.000000
    7        2.726487   1.000000
    8        2.726489   1.000000
    9        5.894398   0.000000
   10        5.894403   0.000000
   11        7.459744   0.000000
   12        7.459747   0.000000
 
 -0.1212120E+00  0.1212120E+00  0.5000000E+00  0.0000000E+00
    1       -8.004539   1.000000
    2       -8.004538   1.000000
    3       -0.562364   1.000000
    4       -0.562362   1.000000
    5        1.892413   1.000000
    6        1.892416   1.000000
    7        2.612123   1.000000
    8        2.612125   1.000000
    9        6.071685   0.000000
   10        6.071692   0.000000
   11        7.481570   0.000000