       N       E                     dE             d eps       ncg     rms          rms(c)
DAV:   1    -0.606898443480E+01   -0.60690E+01   -0.58843E+01  2792   0.453E+01    0.113E+01
DAV:   2    -0.727225038324E+01   -0.12033E+01   -0.15510E+01  2184   0.181E+01    0.147E+01
DAV:   3    -0.741931100625E+01   -0.14706E+00   -0.43447E-01  2072   0.429E+00    0.214E+01
DAV:   4    -0.725059422259E+01    0.16872E+00   -0.48936E-01  2060   0.387E+00    0.307E+00
DAV:   5    -0.725260297536E+01   -0.20088E-02   -0.35735E-02  2120   0.118E+00    0.103E+00
DAV:   6    -0.725246440681E+01    0.13857E-03   -0.79620E-04  2136   0.234E-01    0.936E-01
DAV:   7    -0.725226588559E+01    0.19852E-03   -0.15909E-03  2156   0.248E-01    0.944E-02
DAV:   8    -0.725221716167E+01    0.48724E-04   -0.11886E-04  1296   0.714E-02
   1 F= -.72522172E+01 E0= -.72522172E+01  d E =-.201892E-13
