 vasp.5.4.1 24Jun15 (build Oct 13 2015 09:47:18) complex                        
  
 executed on           IFC91_ompi date 2016.02.08  15:53:13
 running on    1 total cores
 distrk:  each k-point on    1 cores,    1 groups
 distr:  one band on NCORES_PER_BAND=   1 cores,    1 groups


--------------------------------------------------------------------------------------------------------


 INCAR:
 POTCAR:    PAW_PBE Ga 08Apr2002                  
 POTCAR:    PAW_PBE P 06Sep2000                   
 POTCAR:    PAW_PBE Ga 08Apr2002                  
   VRHFIN =Ga: s2p1                                                             
   LEXCH  = PE                                                                  
   EATOM  =    58.8688 eV,    4.3267 Ry                                         
                                                                                
   TITEL  = PAW_PBE Ga 08Apr2002                                                
   LULTRA =        F    use ultrasoft PP ?                                      
   IUNSCR =        1    unscreen: 0-lin 1-nonlin 2-no                           
   RPACOR =    2.170    partial core radius                                     
   POMASS =   69.723; ZVAL   =    3.000    mass and valenz                      
   RCORE  =    2.600    outmost cutoff radius                                   
   RWIGS  =    2.650; RWIGS  =    1.402    wigner-seitz radius (au A)           
   ENMAX  =  134.678; ENMIN  =  101.009 eV                                      
   ICORE  =        3    local potential                                         
   LCOR   =        T    correct aug charges                                     
   LPAW   =        T    paw PP                                                  
   EAUG   =  320.264                                                            
   DEXC   =    0.000                                                            
   RMAX   =    2.658    core radius for proj-oper                               
   RAUG   =    1.300    factor for augmentation sphere                          
   RDEP   =    2.684    radius for radial grids                                 
   RDEPT  =    2.308    core radius for aug-charge                              
                                                                                
   Atomic configuration                                                         
   10 entries                                                                   
     n  l   j            E        occ.                                          
     1  0  0.50    -10228.7830   2.0000                                         
     2  0  0.50     -1262.1604   2.0000                                         
     2  1  1.50     -1098.6333   6.0000                                         
     3  0  0.50      -148.1110   2.0000                                         
     3  1  1.50       -98.8436   6.0000                                         
     3  2  2.50       -19.1549  10.0000                                         
     4  0  0.50        -8.9483   2.0000                                         
     4  1  0.50        -2.5791   1.0000                                         
     4  2  1.50         5.4423   0.0000                                         
     4  3  2.50        -2.7416   0.0000                                         
   Description                                                                  
     l       E           TYP  RCUT    TYP  RCUT                                 
     0     -8.9483097     23  2.600                                             
     0     -5.8232215     23  2.600                                             
     1     -2.5790793     23  2.600                                             
     1      5.2230115     23  2.600                                             
     2      1.3605826     23  2.600                                             
     3     -1.3605826      7  2.600                                             
  local pseudopotential read in
  partial core-charges read in
  partial kinetic energy density read in
  atomic valenz-charges read in
  non local Contribution for L=           0  read in
    real space projection operators read in
  non local Contribution for L=           0  read in
    real space projection operators read in
  non local Contribution for L=           1  read in
    real space projection operators read in
  non local Contribution for L=           1  read in
    real space projection operators read in
  non local Contribution for L=           2  read in
    real space projection operators read in
    PAW grid and wavefunctions read in
 
   number of l-projection  operators is LMAX  =           5
   number of lm-projection operators is LMMAX =          13
 
 POTCAR:    PAW_PBE P 06Sep2000                   
   VRHFIN =P : s2p3                                                             
   LEXCH  = PE                                                                  
   EATOM  =   176.0430 eV,   12.9388 Ry                                         
                                                                                
   TITEL  = PAW_PBE P 06Sep2000                                                 
   LULTRA =        F    use ultrasoft PP ?                                      
   IUNSCR =        1    unscreen: 0-lin 1-nonlin 2-no                           
   RPACOR =    1.500    partial core radius                                     
   POMASS =   30.974; ZVAL   =    5.000    mass and valenz                      
   RCORE  =    1.900    outmost cutoff radius                                   
   RWIGS  =    2.330; RWIGS  =    1.233    wigner-seitz radius (au A)           
   ENMAX  =  255.040; ENMIN  =  191.280 eV                                      
   ICORE  =        2    local potential                                         
   LCOR   =        T    correct aug charges                                     
   LPAW   =        T    paw PP                                                  
   EAUG   =  342.924                                                            
   DEXC   =    0.000                                                            
   RMAX   =    1.935    core radius for proj-oper                               
   RAUG   =    1.300    factor for augmentation sphere                          
   RDEP   =    1.931    radius for radial grids                                 
   RDEPT  =    1.794    core radius for aug-charge                              
                                                                                
   Atomic configuration                                                         
    6 entries                                                                   
     n  l   j            E        occ.                                          
     1  0  0.50     -2084.0982   2.0000                                         
     2  0  0.50      -173.9859   2.0000                                         
     2  1  1.50      -124.4865   6.0000                                         
     3  0  0.50       -13.9692   2.0000                                         
     3  1  0.50        -5.5067   3.0000                                         
     3  2  1.50        -5.4423   0.0000                                         
   Description                                                                  
     l       E           TYP  RCUT    TYP  RCUT                                 
     0    -13.9691527     23  1.900                                             
     0    -11.7794650     23  1.900                                             
     1     -5.5066937     23  1.900                                             
     1     -0.2556953     23  1.900                                             
     2     -5.4423304     23  1.900                                             
  local pseudopotential read in
  partial core-charges read in
  partial kinetic energy density read in
  atomic valenz-charges read in
  non local Contribution for L=           0  read in
    real space projection operators read in
  non local Contribution for L=           0  read in
    real space projection operators read in
  non local Contribution for L=           1  read in
    real space projection operators read in
  non local Contribution for L=           1  read in
    real space projection operators read in
    PAW grid and wavefunctions read in
 
   number of l-projection  operators is LMAX  =           4
   number of lm-projection operators is LMMAX =           8
 

 ----------------------------------------------------------------------------- 
|                                                                             |
|  ADVICE TO THIS USER RUNNING 'VASP/VAMP'   (HEAR YOUR MASTER'S VOICE ...):  |
|                                                                             |
|      You enforced a specific xc-type in the INCAR file,                     |
|      a different type was found on the POTCAR file                          |
|          I HOPE YOU KNOW, WHAT YOU ARE  DOING                               |
|                                                                             |
 ----------------------------------------------------------------------------- 

  PAW_PBE Ga 08Apr2002                  :
 energy of atom  1       EATOM=  -58.8688
 kinetic energy error for atom=    0.0000 (will be added to EATOM!!)
  PAW_PBE P 06Sep2000                   :
 energy of atom  2       EATOM= -176.0430
 kinetic energy error for atom=    0.0013 (will be added to EATOM!!)
 
 
 POSCAR: Ga  P                                   
  positions in cartesian coordinates
  No initial velocities read in
 exchange correlation table for  LEXCH =       14
   RHO(1)=    0.500       N(1)  =     2000
   RHO(2)=  100.500       N(2)  =     4000
 


--------------------------------------------------------------------------------------------------------


 ion  position               nearest neighbor table
   1  0.667  0.333  0.500-   4 2.38   4 2.38   4 2.38   3 2.39
   2  0.333  0.667  1.000-   3 2.38   3 2.38   3 2.38   4 2.39
   3  0.667  0.333  0.874-   2 2.38   2 2.38   2 2.38   1 2.39
   4  0.333  0.667  0.374-   1 2.38   1 2.38   1 2.38   2 2.39
 
  LATTYP: Found a hexagonal cell.
 ALAT       =     3.8803567000
 C/A-ratio  =     1.6481374251
  
  Lattice vectors:
  
 A1 = (   3.8803567000,   0.0000000000,   0.0000000000)
 A2 = (  -1.9401783500,   3.3604874779,   0.0000000000)
 A3 = (   0.0000000000,   0.0000000000,   6.3953611000)


Analysis of symmetry for initial positions (statically):
=====================================================================
 Subroutine PRICEL returns:
 Original cell was already a primitive cell.
 

 Routine SETGRP: Setting up the symmetry group for a 
 hexagonal supercell.


 Subroutine GETGRP returns: Found 12 space group operations
 (whereof  6 operations were pure point group operations)
 out of a pool of 24 trial point group operations.


The static configuration has the point symmetry C_3v.
 The point group associated with its full space group is C_6v.


Analysis of symmetry for dynamics (positions and initial velocities):
=====================================================================
 Subroutine PRICEL returns:
 Original cell was already a primitive cell.
 

 Routine SETGRP: Setting up the symmetry group for a 
 hexagonal supercell.


 Subroutine GETGRP returns: Found 12 space group operations
 (whereof  6 operations were pure point group operations)
 out of a pool of 24 trial point group operations.


The dynamic configuration has the point symmetry C_3v.
 The point group associated with its full space group is C_6v.
 
 
 KPOINTS: KPOINTS created by Atomic Simulation Env
  k-points in reciprocal lattice
Space group operators:
 irot       det(A)        alpha          n_x          n_y          n_z        tau_x        tau_y        tau_z
    1     1.000000     0.000000     1.000000     0.000000     0.000000     0.000000     0.000000     0.000000
    2     1.000000   120.000000     0.000000    -0.000000    -1.000000     0.000000     0.000000     0.000000
    3     1.000000   120.000000     0.000000     0.000000     1.000000     0.000000     0.000000     0.000000
    4    -1.000000   180.000000     1.000000    -0.000000    -0.000000     0.000000     0.000000     0.000000
    5    -1.000000   180.000000    -0.500000     0.866025    -0.000000     0.000000     0.000000     0.000000
    6    -1.000000   180.000000     0.500000     0.866025    -0.000000     0.000000     0.000000     0.000000
    7     1.000000    60.000000     0.000000    -0.000000    -1.000000     0.000001    -0.000000     0.500000
    8     1.000000   180.000000     0.000000     0.000000     1.000000     0.000000    -0.000000     0.500000
    9     1.000000    60.000000     0.000000     0.000000     1.000000     0.000000    -0.000000     0.500000
   10    -1.000000   180.000000    -0.866025     0.500000    -0.000000     0.000000    -0.000000     0.500000
   11    -1.000000   180.000000     0.000000     1.000000    -0.000000     0.000001    -0.000000     0.500000
   12    -1.000000   180.000000    -0.866025    -0.500000     0.000000     0.000000    -0.000000     0.500000


--------------------------------------------------------------------------------------------------------




 Dimension of arrays:
   k-points           NKPTS =     72   k-points in BZ     NKDIM =     72   number of bands    NBANDS=     12
   number of dos      NEDOS =    301   number of ions     NIONS =      4
   non local maximal  LDIM  =      5   non local SUM 2l+1 LMDIM =     13
   total plane-waves  NPLWV =  20736
   max r-space proj   IRMAX =      1   max aug-charges    IRDMAX=  18068
   dimension x,y,z NGX =    24 NGY =   24 NGZ =   36
   dimension x,y,z NGXF=    48 NGYF=   48 NGZF=   72
   support grid    NGXF=    48 NGYF=   48 NGZF=   72
   ions per type =               2   2
 NGX,Y,Z   is equivalent  to a cutoff of  10.28, 10.28,  9.36 a.u.
 NGXF,Y,Z  is equivalent  to a cutoff of  20.56, 20.56, 18.72 a.u.


 I would recommend the setting:
   dimension x,y,z NGX =    21 NGY =   21 NGZ =   35
 SYSTEM =  Band structure                          
 POSCAR =  Ga  P                                   

 Startparameter for this run:
   NWRITE =      2    write-flag & timer
   PREC   = normal    normal or accurate (medium, high low for compatibility)
   ISTART =      1    job   : 0-new  1-cont  2-samecut
   ICHARG =      0    charge: 1-file 2-atom 10-const
   ISPIN  =      1    spin polarized calculation?
   LNONCOLLINEAR =      F non collinear calculations
   LSORBIT =      F    spin-orbit coupling
   INIWAV =      1    electr: 0-lowe 1-rand  2-diag
   LASPH  =      F    aspherical Exc in radial PAW
   METAGGA=      F    non-selfconsistent MetaGGA calc.

 Electronic Relaxation 1
   ENCUT  =  500.0 eV  36.75 Ry    6.06 a.u.   7.07  7.07 11.66*2*pi/ulx,y,z
   ENINI  =  500.0     initial cutoff
   ENAUG  =  342.9 eV  augmentation charge cutoff
   NELM   =     60;   NELMIN=  2; NELMDL=  0     # of ELM steps 
   EDIFF  = 0.1E-03   stopping-criterion for ELM
   LREAL  =      F    real-space projection
   NLSPLINE    = F    spline interpolate recip. space projectors
   LCOMPAT=      F    compatible to vasp.4.4
   GGA_COMPAT  = T    GGA compatible to vasp.4.4-vasp.4.6
   LMAXPAW     = -100 max onsite density
   LMAXMIX     =    2 max onsite mixed and CHGCAR
   VOSKOWN=      0    Vosko Wilk Nusair interpolation
   ROPT   =    0.00000   0.00000
 Ionic relaxation
   EDIFFG = 0.1E-02   stopping-criterion for IOM
   NSW    =      0    number of steps for IOM
   NBLOCK =      1;   KBLOCK =      1    inner block; outer block 
   IBRION =     -1    ionic relax: 0-MD 1-quasi-New 2-CG
   NFREE  =      0    steps in history (QN), initial steepest desc. (CG)
   ISIF   =      2    stress and relaxation
   IWAVPR =     10    prediction:  0-non 1-charg 2-wave 3-comb
   ISYM   =      2    0-nonsym 1-usesym 2-fastsym
   LCORR  =      T    Harris-Foulkes like correction to forces

   POTIM  = 0.5000    time-step for ionic-motion
   TEIN   =    0.0    initial temperature
   TEBEG  =    0.0;   TEEND  =   0.0 temperature during run
   SMASS  =  -3.00    Nose mass-parameter (am)
   estimated Nose-frequenzy (Omega)   =  0.10E-29 period in steps =****** mass=  -0.344E-27a.u.
   SCALEE = 1.0000    scale energy and forces
   NPACO  =    256;   APACO  = 16.0  distance and # of slots for P.C.
   PSTRESS=    0.0 pullay stress

  Mass of Ions in am
   POMASS =  69.72 30.97
  Ionic Valenz
   ZVAL   =   3.00  5.00
  Atomic Wigner-Seitz radii
   RWIGS  =  -1.00 -1.00
  virtual crystal weights 
   VCA    =   1.00  1.00
   NELECT =      16.0000    total number of electrons
   NUPDOWN=      -1.0000    fix difference up-down

 DOS related values:
   EMIN   =  10.00;   EMAX   =-10.00  energy-range for DOS
   EFERMI =   0.00
   ISMEAR =     0;   SIGMA  =   0.01  broadening in eV -4-tet -1-fermi 0-gaus

 Electronic relaxation 2 (details)
   IALGO  =     38    algorithm
   LDIAG  =      T    sub-space diagonalisation (order eigenvalues)
   LSUBROT=      F    optimize rotation matrix (better conditioning)
   TURBO    =      0    0=normal 1=particle mesh
   IRESTART =      0    0=no restart 2=restart with 2 vectors
   NREBOOT  =      0    no. of reboots
   NMIN     =      0    reboot dimension
   EREF     =   0.00    reference energy to select bands
   IMIX   =      4    mixing-type and parameters
     AMIX     =   0.40;   BMIX     =  1.00
     AMIX_MAG =   1.60;   BMIX_MAG =  1.00
     AMIN     =   0.10
     WC   =   100.;   INIMIX=   1;  MIXPRE=   1;  MAXMIX= -45

 Intra band minimization:
   WEIMIN = 0.0000     energy-eigenvalue tresh-hold
   EBREAK =  0.21E-05  absolut break condition
   DEPER  =   0.30     relativ break condition  

   TIME   =   0.40     timestep for ELM

  volume/ion in A,a.u.               =      20.85       140.69
  Fermi-wavevector in a.u.,A,eV,Ry     =   0.944210  1.784298 12.130031  0.891532
  Thomas-Fermi vector in A             =   2.071992
 
 Write flags
   LWAVE  =      T    write WAVECAR
   LCHARG =      T    write CHGCAR
   LVTOT  =      F    write LOCPOT, total local potential
   LVHAR  =      F    write LOCPOT, Hartree potential only
   LELF   =      F    write electronic localiz. function (ELF)
   LORBIT =      0    0 simple, 1 ext, 2 COOP (PROOUT)


 Dipole corrections
   LMONO  =      F    monopole corrections only (constant potential shift)
   LDIPOL =      F    correct potential (dipole corrections)
   IDIPOL =      0    1-x, 2-y, 3-z, 4-all directions 
   EPSILON=  1.0000000 bulk dielectric constant

 Exchange correlation treatment:
   GGA     =    PS    GGA type
   LEXCH   =    14    internal setting for exchange type
   VOSKOWN=      0    Vosko Wilk Nusair interpolation
   LHFCALC =     F    Hartree Fock is set to
   LHFONE  =     F    Hartree Fock one center treatment
   AEXX    =    0.0000 exact exchange contribution

 Linear response parameters
   LEPSILON=     F    determine dielectric tensor
   LRPA    =     F    only Hartree local field effects (RPA)
   LNABLA  =     F    use nabla operator in PAW spheres
   LVEL    =     F    velocity operator in full k-point grid
   LINTERFAST=   F  fast interpolation
   KINTER  =     0    interpolate to denser k-point grid
   CSHIFT  =0.1000    complex shift for real part using Kramers Kronig
   OMEGAMAX=  -1.0    maximum frequency
   DEG_THRESHOLD= 0.2000000E-02 threshold for treating states as degnerate
   RTIME   =    0.100 relaxation time in fs

 Orbital magnetization related:
   ORBITALMAG=     F  switch on orbital magnetization
   LCHIMAG   =     F  perturbation theory with respect to B field
   DQ        =  0.001000  dq finite difference perturbation B field



--------------------------------------------------------------------------------------------------------


 Static calculation
 charge density and potential will be updated during run
 non-spin polarized calculation
 Variant of blocked Davidson
 Davidson routine will perform the subspace rotation
 perform sub-space diagonalisation
    after iterative eigenvector-optimisation
 modified Broyden-mixing scheme, WC =      100.0
 initial mixing is a Kerker type mixing with AMIX =  0.4000 and BMIX =      1.0000
 Hartree-type preconditioning will be used
 using additional bands            4
 reciprocal scheme for non local part
 use partial core corrections
 calculate Harris-corrections to forces 
   (improved forces if not selfconsistent)
 use gradient corrections 
 use of overlap-Matrix (Vanderbilt PP)
 Gauss-broadening in eV      SIGMA  =   0.01


--------------------------------------------------------------------------------------------------------


  energy-cutoff  :      500.00
  volume of cell :       83.39
      direct lattice vectors                 reciprocal lattice vectors
     3.880356700  0.000000000  0.000000000     0.257708267  0.148787937 -0.000000000
    -1.940178350  3.360487478  0.000000000     0.000000000  0.297575875 -0.000000000
     0.000000000  0.000000000  6.395361100     0.000000000  0.000000000  0.156363337

  length of vectors
     3.880356700  3.880356700  6.395361100     0.297575875  0.297575875  0.156363337


 
 old parameters found on file WAVECAR:
  energy-cutoff  :      500.00
  volume of cell :       83.39
      direct lattice vectors                 reciprocal lattice vectors
     3.880356700  0.000000000  0.000000000     0.257708267  0.148787937 -0.000000000
    -1.940178350  3.360487478  0.000000000     0.000000000  0.297575875 -0.000000000
     0.000000000  0.000000000  6.395361100     0.000000000  0.000000000  0.156363337

  length of vectors

 
 k-points in units of 2pi/SCALE and weight: KPOINTS created by Atomic Simulation Env
   0.00000000  0.00000000  0.00000000       0.016
   0.01660337  0.02065489 -0.00000000       0.094
   0.03320674  0.04130978 -0.00000000       0.047
   0.01660337  0.04279275 -0.00000000       0.094
   0.00000000  0.00000000  0.00611240       0.031
   0.01660337  0.02065489  0.00611240       0.188
   0.03320674  0.04130978  0.00611240       0.094
   0.01660337  0.04279275  0.00611240       0.188
   0.00000000  0.00000000  0.01222480       0.016
   0.01660337  0.02065489  0.01222480       0.094
   0.03320674  0.04130978  0.01222480       0.047
   0.01660337  0.04279275  0.01222480       0.094
   0.00000000  0.00000000  0.07818167       0.000
   0.00000000  0.00929925  0.07818167       0.000
   0.00000000  0.01859849  0.07818167       0.000
   0.00000000  0.02789774  0.07818167       0.000
   0.00000000  0.03719698  0.07818167       0.000
   0.00000000  0.04649623  0.07818167       0.000
   0.00000000  0.05579548  0.07818167       0.000
   0.00000000  0.06509472  0.07818167       0.000
   0.00000000  0.07439397  0.07818167       0.000
   0.00000000  0.08369321  0.07818167       0.000
   0.00000000  0.09299246  0.07818167       0.000
   0.00000000  0.10229171  0.07818167       0.000
   0.00000000  0.11159095  0.07818167       0.000
   0.00000000  0.12089020  0.07818167       0.000
   0.00000000  0.13018945  0.07818167       0.000
   0.00000000  0.13948869  0.07818167       0.000
   0.00000000  0.14878794  0.07818167       0.000
   0.00000000  0.14878794  0.06840896       0.000
   0.00000000  0.14878794  0.05863625       0.000
   0.00000000  0.14878794  0.04886354       0.000
   0.00000000  0.14878794  0.03909083       0.000
   0.00000000  0.14878794  0.02931813       0.000
   0.00000000  0.14878794  0.01954542       0.000
   0.00000000  0.14878794  0.00977271       0.000
   0.00000000  0.14878794 -0.00000000       0.000
   0.00000000  0.13948869 -0.00000000       0.000
   0.00000000  0.13018945 -0.00000000       0.000
   0.00000000  0.12089020 -0.00000000       0.000
   0.00000000  0.11159095 -0.00000000       0.000
   0.00000000  0.10229171 -0.00000000       0.000
   0.00000000  0.09299246 -0.00000000       0.000
   0.00000000  0.08369321 -0.00000000       0.000
   0.00000000  0.07439397 -0.00000000       0.000
   0.00000000  0.06509472 -0.00000000       0.000
   0.00000000  0.05579548 -0.00000000       0.000
   0.00000000  0.04649623 -0.00000000       0.000
   0.00000000  0.03719698 -0.00000000       0.000
   0.00000000  0.02789774 -0.00000000       0.000
   0.00000000  0.01859849 -0.00000000       0.000
   0.00000000  0.00929925 -0.00000000       0.000
   0.00000000  0.00000000  0.00000000       0.000
   0.00000000  0.00000000  0.00977271       0.000
   0.00000000  0.00000000  0.01954542       0.000
   0.00000000  0.00000000  0.02931813       0.000
   0.00000000  0.00000000  0.03909083       0.000
   0.00000000  0.00000000  0.04886354       0.000
   0.00000000  0.00000000  0.05863625       0.000
   0.00000000  0.00000000  0.06840896       0.000
   0.00000000  0.00000000  0.07818167       0.000
  -0.00780933  0.00450872  0.07818167       0.000
  -0.01561867  0.00901744  0.07818167       0.000
  -0.02342800  0.01352616  0.07818167       0.000
  -0.03123733  0.01803488  0.07818167       0.000
  -0.03904667  0.02254360  0.07818167       0.000
  -0.04685600  0.02705233  0.07818167       0.000
  -0.05466534  0.03156105  0.07818167       0.000
  -0.06247467  0.03606977  0.07818167       0.000
  -0.07028400  0.04057849  0.07818167       0.000
  -0.07809334  0.04508721  0.07818167       0.000
  -0.08590267  0.04959593  0.07818167       0.000
 
 k-points in reciprocal lattice and weights: KPOINTS created by Atomic Simulation Env
   0.00000000  0.00000000  0.00000000       0.016
   0.06442700  0.03719700  0.00000000       0.094
   0.12885400  0.07439400  0.00000000       0.047
   0.06442700  0.11159100  0.00000000       0.094
   0.00000000  0.00000000  0.03909100       0.031
   0.06442700  0.03719700  0.03909100       0.188
   0.12885400  0.07439400  0.03909100       0.094
   0.06442700  0.11159100  0.03909100       0.188
   0.00000000  0.00000000  0.07818200       0.016
   0.06442700  0.03719700  0.07818200       0.094
   0.12885400  0.07439400  0.07818200       0.047
   0.06442700  0.11159100  0.07818200       0.094
   0.00000000  0.00000000  0.50000000       0.000
   0.00000000  0.03125000  0.50000000       0.000
   0.00000000  0.06250000  0.50000000       0.000
   0.00000000  0.09375000  0.50000000       0.000
   0.00000000  0.12500000  0.50000000       0.000
   0.00000000  0.15625000  0.50000000       0.000
   0.00000000  0.18750000  0.50000000       0.000
   0.00000000  0.21875000  0.50000000       0.000
   0.00000000  0.25000000  0.50000000       0.000
   0.00000000  0.28125000  0.50000000       0.000
   0.00000000  0.31250000  0.50000000       0.000
   0.00000000  0.34375000  0.50000000       0.000
   0.00000000  0.37500000  0.50000000       0.000
   0.00000000  0.40625000  0.50000000       0.000
   0.00000000  0.43750000  0.50000000       0.000
   0.00000000  0.46875000  0.50000000       0.000
   0.00000000  0.50000000  0.50000000       0.000
   0.00000000  0.50000000  0.43750000       0.000
   0.00000000  0.50000000  0.37500000       0.000
   0.00000000  0.50000000  0.31250000       0.000
   0.00000000  0.50000000  0.25000000       0.000
   0.00000000  0.50000000  0.18750000       0.000
   0.00000000  0.50000000  0.12500000       0.000
   0.00000000  0.50000000  0.06250000       0.000
   0.00000000  0.50000000  0.00000000       0.000
   0.00000000  0.46875000  0.00000000       0.000
   0.00000000  0.43750000  0.00000000       0.000
   0.00000000  0.40625000  0.00000000       0.000
   0.00000000  0.37500000  0.00000000       0.000
   0.00000000  0.34375000  0.00000000       0.000
   0.00000000  0.31250000  0.00000000       0.000
   0.00000000  0.28125000  0.00000000       0.000
   0.00000000  0.25000000  0.00000000       0.000
   0.00000000  0.21875000  0.00000000       0.000
   0.00000000  0.18750000  0.00000000       0.000
   0.00000000  0.15625000  0.00000000       0.000
   0.00000000  0.12500000  0.00000000       0.000
   0.00000000  0.09375000  0.00000000       0.000
   0.00000000  0.06250000  0.00000000       0.000
   0.00000000  0.03125000  0.00000000       0.000
   0.00000000  0.00000000  0.00000000       0.000
   0.00000000  0.00000000  0.06250000       0.000
   0.00000000  0.00000000  0.12500000       0.000
   0.00000000  0.00000000  0.18750000       0.000
   0.00000000  0.00000000  0.25000000       0.000
   0.00000000  0.00000000  0.31250000       0.000
   0.00000000  0.00000000  0.37500000       0.000
   0.00000000  0.00000000  0.43750000       0.000
   0.00000000  0.00000000  0.50000000       0.000
  -0.03030300  0.03030300  0.50000000       0.000
  -0.06060600  0.06060600  0.50000000       0.000
  -0.09090900  0.09090900  0.50000000       0.000
  -0.12121200  0.12121200  0.50000000       0.000
  -0.15151500  0.15151500  0.50000000       0.000
  -0.18181800  0.18181800  0.50000000       0.000
  -0.21212100  0.21212100  0.50000000       0.000
  -0.24242400  0.24242400  0.50000000       0.000
  -0.27272700  0.27272700  0.50000000       0.000
  -0.30303000  0.30303000  0.50000000       0.000
  -0.33333300  0.33333300  0.50000000       0.000
 
 position of ions in fractional coordinates (direct lattice) 
   0.66666700  0.33333300  0.49993900
   0.33333300  0.66666700  0.99993900
   0.66666700  0.33333300  0.87406100
   0.33333300  0.66666700  0.37406100
 
 position of ions in cartesian coordinates  (Angst):
   1.94018029  1.12016137  3.19729043
  -0.00000194  2.24032611  6.39497098
   1.94018029  1.12016137  5.58993572
  -0.00000194  2.24032611  2.39225517
 


--------------------------------------------------------------------------------------------------------


 k-point  1 :   0.0000 0.0000 0.0000  plane waves:    2105
 k-point  2 :   0.0644 0.0372 0.0000  plane waves:    2107
 k-point  3 :   0.1289 0.0744 0.0000  plane waves:    2120
 k-point  4 :   0.0644 0.1116 0.0000  plane waves:    2117
 k-point  5 :   0.0000 0.0000 0.0391  plane waves:    2099
 k-point  6 :   0.0644 0.0372 0.0391  plane waves:    2102
 k-point  7 :   0.1289 0.0744 0.0391  plane waves:    2119
 k-point  8 :   0.0644 0.1116 0.0391  plane waves:    2110
 k-point  9 :   0.0000 0.0000 0.0782  plane waves:    2099
 k-point 10 :   0.0644 0.0372 0.0782  plane waves:    2102
 k-point 11 :   0.1289 0.0744 0.0782  plane waves:    2114
 k-point 12 :   0.0644 0.1116 0.0782  plane waves:    2111
 k-point 13 :   0.0000 0.0000 0.5000  plane waves:    2112
 k-point 14 :   0.0000 0.0312 0.5000  plane waves:    2112
 k-point 15 :   0.0000 0.0625 0.5000  plane waves:    2108
 k-point 16 :   0.0000 0.0938 0.5000  plane waves:    2104
 k-point 17 :   0.0000 0.1250 0.5000  plane waves:    2098
 k-point 18 :   0.0000 0.1562 0.5000  plane waves:    2096
 k-point 19 :   0.0000 0.1875 0.5000  plane waves:    2104
 k-point 20 :   0.0000 0.2188 0.5000  plane waves:    2114
 k-point 21 :   0.0000 0.2500 0.5000  plane waves:    2106
 k-point 22 :   0.0000 0.2812 0.5000  plane waves:    2118
 k-point 23 :   0.0000 0.3125 0.5000  plane waves:    2120
 k-point 24 :   0.0000 0.3438 0.5000  plane waves:    2126
 k-point 25 :   0.0000 0.3750 0.5000  plane waves:    2120
 k-point 26 :   0.0000 0.4062 0.5000  plane waves:    2114
 k-point 27 :   0.0000 0.4375 0.5000  plane waves:    2110
 k-point 28 :   0.0000 0.4688 0.5000  plane waves:    2112
 k-point 29 :   0.0000 0.5000 0.5000  plane waves:    2120
 k-point 30 :   0.0000 0.5000 0.4375  plane waves:    2116
 k-point 31 :   0.0000 0.5000 0.3750  plane waves:    2116
 k-point 32 :   0.0000 0.5000 0.3125  plane waves:    2122
 k-point 33 :   0.0000 0.5000 0.2500  plane waves:    2118
 k-point 34 :   0.0000 0.5000 0.1875  plane waves:    2124
 k-point 35 :   0.0000 0.5000 0.1250  plane waves:    2130
 k-point 36 :   0.0000 0.5000 0.0625  plane waves:    2128
 k-point 37 :   0.0000 0.5000 0.0000  plane waves:    2116
 k-point 38 :   0.0000 0.4688 0.0000  plane waves:    2132
 k-point 39 :   0.0000 0.4375 0.0000  plane waves:    2124
 k-point 40 :   0.0000 0.4062 0.0000  plane waves:    2118
 k-point 41 :   0.0000 0.3750 0.0000  plane waves:    2124
 k-point 42 :   0.0000 0.3438 0.0000  plane waves:    2116
 k-point 43 :   0.0000 0.3125 0.0000  plane waves:    2120
 k-point 44 :   0.0000 0.2812 0.0000  plane waves:    2128
 k-point 45 :   0.0000 0.2500 0.0000  plane waves:    2134
 k-point 46 :   0.0000 0.2188 0.0000  plane waves:    2130
 k-point 47 :   0.0000 0.1875 0.0000  plane waves:    2118
 k-point 48 :   0.0000 0.1562 0.0000  plane waves:    2108
 k-point 49 :   0.0000 0.1250 0.0000  plane waves:    2103
 k-point 50 :   0.0000 0.0938 0.0000  plane waves:    2107
 k-point 51 :   0.0000 0.0625 0.0000  plane waves:    2113
 k-point 52 :   0.0000 0.0312 0.0000  plane waves:    2097
 k-point 53 :   0.0000 0.0000 0.0000  plane waves:    2105
 k-point 54 :   0.0000 0.0000 0.0625  plane waves:    2099
 k-point 55 :   0.0000 0.0000 0.1250  plane waves:    2111
 k-point 56 :   0.0000 0.0000 0.1875  plane waves:    2111
 k-point 57 :   0.0000 0.0000 0.2500  plane waves:    2099
 k-point 58 :   0.0000 0.0000 0.3125  plane waves:    2117
 k-point 59 :   0.0000 0.0000 0.3750  plane waves:    2112
 k-point 60 :   0.0000 0.0000 0.4375  plane waves:    2094
 k-point 61 :   0.0000 0.0000 0.5000  plane waves:    2112
 k-point 62 :  -0.0303 0.0303 0.5000  plane waves:    2108
 k-point 63 :  -0.0606 0.0606 0.5000  plane waves:    2108
 k-point 64 :  -0.0909 0.0909 0.5000  plane waves:    2104
 k-point 65 :  -0.1212 0.1212 0.5000  plane waves:    2100
 k-point 66 :  -0.1515 0.1515 0.5000  plane waves:    2094
 k-point 67 :  -0.1818 0.1818 0.5000  plane waves:    2104
 k-point 68 :  -0.2121 0.2121 0.5000  plane waves:    2110
 k-point 69 :  -0.2424 0.2424 0.5000  plane waves:    2106
 k-point 70 :  -0.2727 0.2727 0.5000  plane waves:    2118
 k-point 71 :  -0.3030 0.3030 0.5000  plane waves:    2122
 k-point 72 :  -0.3333 0.3333 0.5000  plane waves:    2124

 maximum and minimum number of plane-waves per node :      2134     2094

 maximum number of plane-waves:      2134
 maximum index in each direction: 
   IXMAX=    7   IYMAX=    7   IZMAX=   11
   IXMIN=   -7   IYMIN=   -7   IZMIN=  -12

 WARNING: aliasing errors must be expected set NGX to  30 to avoid them
 WARNING: aliasing errors must be expected set NGY to  30 to avoid them
 WARNING: aliasing errors must be expected set NGZ to  48 to avoid them
 aliasing errors are usually negligible using standard VASP settings
 and one can safely disregard these warnings

 serial   3D FFT for wavefunctions
 parallel 3D FFT for charge:
    minimum data exchange during FFTs selected (reduces bandwidth)


 total amount of memory used by VASP on root node   108324. kBytes
========================================================================

   base      :      30000. kBytes
   nonl-proj :      32095. kBytes
   fftplans  :       5804. kBytes
   grid      :      10312. kBytes
   one-center:         32. kBytes
   wavefun   :      30081. kBytes
 
     INWAV:  cpu time    0.0556: real time    0.0556
 Broyden mixing: mesh for mixing (old mesh)
   NGX = 15   NGY = 15   NGZ = 23
  (NGX  = 48   NGY  = 48   NGZ  = 72)
  gives a total of   5175 points

 charge density for first step will be calculated from the start-wavefunctions


--------------------------------------------------------------------------------------------------------


 Maximum index for augmentation-charges        17429 (set IRDMAX)


--------------------------------------------------------------------------------------------------------


 initial charge from wavefunction
 First call to EWALD:  gamma=   0.406
 Maximum number of real-space cells 3x 3x 2
 Maximum number of reciprocal cells 2x 2x 4

 FEWALD executed in parallel
    FEWALD:  cpu time    0.0011: real time    0.0011


----------------------------------------- Iteration    1(   1)  ---------------------------------------


    POTLOK:  cpu time    0.2503: real time    0.0625
    SETDIJ:  cpu time    0.0364: real time    0.0118
     EDDAV:  cpu time    9.2472: real time    2.3877
       DOS:  cpu time    0.0015: real time    0.0004
    CHARGE:  cpu time    0.1284: real time    0.0322
    MIXING:  cpu time    0.0082: real time    0.0021
    --------------------------------------------
      LOOP:  cpu time    9.6754: real time    2.4974

 eigenvalue-minimisations  :  2792
 total energy-change (2. order) :-0.6068984E+01  (-0.5884326E+01)
 number of electron      16.0000007 magnetization 
 augmentation part       -1.8347108 magnetization 

 Broyden mixing:
  rms(total) = 0.11283E+01    rms(broyden)= 0.11283E+01
  rms(prec ) = 0.12114E+01
  weight for this iteration     100.00

 Free energy of the ion-electron system (eV)
  ---------------------------------------------------
  alpha Z        PSCENC =        30.51017296
  Ewald energy   TEWEN  =      -470.14872509
  -Hartree energ DENC   =       -48.99216721
  -exchange      EXHF   =         0.00000000
  -V(xc)+E(xc)   XCENC  =       -29.30043176
  PAW double counting   =      3183.49318758    -3121.27782700
  entropy T*S    EENTRO =        -0.00000000
  eigenvalues    EBANDS =       -18.63044989
  atomic energy  EATOM  =       468.27725597
  Solvation  Ediel_sol  =         0.00000000
  ---------------------------------------------------
  free energy    TOTEN  =        -6.06898443 eV

  energy without entropy =       -6.06898443  energy(sigma->0) =       -6.06898443


--------------------------------------------------------------------------------------------------------




----------------------------------------- Iteration    1(   2)  ---------------------------------------


    POTLOK:  cpu time    0.2332: real time    0.0640
    SETDIJ:  cpu time    0.0414: real time    0.0112
     EDDAV:  cpu time    7.3320: real time    1.8770
       DOS:  cpu time    0.0003: real time    0.0003
    CHARGE:  cpu time    0.1241: real time    0.0308
    MIXING:  cpu time    0.0051: real time    0.0022
    --------------------------------------------
      LOOP:  cpu time    7.7438: real time    1.9880

 eigenvalue-minimisations  :  2184
 total energy-change (2. order) :-0.1203266E+01  (-0.1551034E+01)
 number of electron      16.0000006 magnetization 
 augmentation part       -1.8647926 magnetization 

 Broyden mixing:
  rms(total) = 0.14680E+01    rms(broyden)= 0.14680E+01
  rms(prec ) = 0.14803E+01
  weight for this iteration     100.00

 eigenvalues of (default mixing * dielectric matrix)
  average eigenvalue GAMMA=   2.3758
  2.3758

 Free energy of the ion-electron system (eV)
  ---------------------------------------------------
  alpha Z        PSCENC =        30.51017296
  Ewald energy   TEWEN  =      -470.14872509
  -Hartree energ DENC   =       -52.62507264
  -exchange      EXHF   =         0.00000000
  -V(xc)+E(xc)   XCENC  =       -28.85553380
  PAW double counting   =      2852.98895087    -2790.91673018
  entropy T*S    EENTRO =        -0.00000000
  eigenvalues    EBANDS =       -16.50256847
  atomic energy  EATOM  =       468.27725597
  Solvation  Ediel_sol  =         0.00000000
  ---------------------------------------------------
  free energy    TOTEN  =        -7.27225038 eV

  energy without entropy =       -7.27225038  energy(sigma->0) =       -7.27225038


--------------------------------------------------------------------------------------------------------




----------------------------------------- Iteration    1(   3)  ---------------------------------------


    POTLOK:  cpu time    0.2597: real time    0.0655
    SETDIJ:  cpu time    0.0451: real time    0.0117
     EDDAV:  cpu time    6.9334: real time    1.7580
       DOS:  cpu time    0.0014: real time    0.0003
    CHARGE:  cpu time    0.1233: real time    0.0314
    MIXING:  cpu time    0.0093: real time    0.0024
    --------------------------------------------
      LOOP:  cpu time    7.3822: real time    1.8712

 eigenvalue-minimisations  :  2072
 total energy-change (2. order) :-0.1470606E+00  (-0.4344715E-01)
 number of electron      16.0000006 magnetization 
 augmentation part       -1.8663318 magnetization 

 Broyden mixing:
  rms(total) = 0.21351E+01    rms(broyden)= 0.21351E+01
  rms(prec ) = 0.21602E+01
  weight for this iteration     100.00

 eigenvalues of (default mixing * dielectric matrix)
  average eigenvalue GAMMA=   1.5192
  1.3523  1.6861

 Free energy of the ion-electron system (eV)
  ---------------------------------------------------
  alpha Z        PSCENC =        30.51017296
  Ewald energy   TEWEN  =      -470.14872509
  -Hartree energ DENC   =       -50.84432086
  -exchange      EXHF   =         0.00000000
  -V(xc)+E(xc)   XCENC  =       -29.07417358
  PAW double counting   =      3527.65671273    -3465.52728497
  entropy T*S    EENTRO =        -0.00000000
  eigenvalues    EBANDS =       -18.26894817
  atomic energy  EATOM  =       468.27725597
  Solvation  Ediel_sol  =         0.00000000
  ---------------------------------------------------
  free energy    TOTEN  =        -7.41931101 eV

  energy without entropy =       -7.41931101  energy(sigma->0) =       -7.41931101


--------------------------------------------------------------------------------------------------------




----------------------------------------- Iteration    1(   4)  ---------------------------------------


    POTLOK:  cpu time    0.2376: real time    0.0666
    SETDIJ:  cpu time    0.0409: real time    0.0106
     EDDAV:  cpu time    6.8858: real time    1.7423
       DOS:  cpu time    0.0013: real time    0.0003
    CHARGE:  cpu time    0.1229: real time    0.0308
    MIXING:  cpu time    0.0093: real time    0.0023
    --------------------------------------------
      LOOP:  cpu time    7.3042: real time    1.8549

 eigenvalue-minimisations  :  2060
 total energy-change (2. order) : 0.1687168E+00  (-0.4893566E-01)
 number of electron      16.0000006 magnetization 
 augmentation part       -1.8808560 magnetization 

 Broyden mixing:
  rms(total) = 0.30748E+00    rms(broyden)= 0.30748E+00
  rms(prec ) = 0.31061E+00
  weight for this iteration     100.00

 eigenvalues of (default mixing * dielectric matrix)
  average eigenvalue GAMMA=   1.3649
  2.0623  1.3302  0.7023

 Free energy of the ion-electron system (eV)
  ---------------------------------------------------
  alpha Z        PSCENC =        30.51017296
  Ewald energy   TEWEN  =      -470.14872509
  -Hartree energ DENC   =       -54.98252866
  -exchange      EXHF   =         0.00000000
  -V(xc)+E(xc)   XCENC  =       -28.53984338
  PAW double counting   =      1895.89227501    -1833.87501133
  entropy T*S    EENTRO =        -0.00000000
  eigenvalues    EBANDS =       -14.38418970
  atomic energy  EATOM  =       468.27725597
  Solvation  Ediel_sol  =         0.00000000
  ---------------------------------------------------
  free energy    TOTEN  =        -7.25059422 eV

  energy without entropy =       -7.25059422  energy(sigma->0) =       -7.25059422


--------------------------------------------------------------------------------------------------------




----------------------------------------- Iteration    1(   5)  ---------------------------------------


    POTLOK:  cpu time    0.2279: real time    0.0629
    SETDIJ:  cpu time    0.0409: real time    0.0114
     EDDAV:  cpu time    7.0700: real time    1.7939
       DOS:  cpu time    0.0014: real time    0.0003
    CHARGE:  cpu time    0.1224: real time    0.0307
    MIXING:  cpu time    0.0095: real time    0.0024
    --------------------------------------------
      LOOP:  cpu time    7.4783: real time    1.9036

 eigenvalue-minimisations  :  2120
 total energy-change (2. order) :-0.2008753E-02  (-0.3573502E-02)
 number of electron      16.0000006 magnetization 
 augmentation part       -1.8808184 magnetization 

 Broyden mixing:
  rms(total) = 0.10302E+00    rms(broyden)= 0.10302E+00
  rms(prec ) = 0.10581E+00
  weight for this iteration     100.00

 eigenvalues of (default mixing * dielectric matrix)
  average eigenvalue GAMMA=   1.1452
  1.9420  1.4072  0.6157  0.6157

 Free energy of the ion-electron system (eV)
  ---------------------------------------------------
  alpha Z        PSCENC =        30.51017296
  Ewald energy   TEWEN  =      -470.14872509
  -Hartree energ DENC   =       -55.41313295
  -exchange      EXHF   =         0.00000000
  -V(xc)+E(xc)   XCENC  =       -28.49516883
  PAW double counting   =      1746.70148514    -1684.69305862
  entropy T*S    EENTRO =        -0.00000000
  eigenvalues    EBANDS =       -13.99143155
  atomic energy  EATOM  =       468.27725597
  Solvation  Ediel_sol  =         0.00000000
  ---------------------------------------------------
  free energy    TOTEN  =        -7.25260298 eV

  energy without entropy =       -7.25260298  energy(sigma->0) =       -7.25260298


--------------------------------------------------------------------------------------------------------




----------------------------------------- Iteration    1(   6)  ---------------------------------------


    POTLOK:  cpu time    0.2478: real time    0.0623
    SETDIJ:  cpu time    0.0425: real time    0.0106
     EDDAV:  cpu time    7.1519: real time    1.8211
       DOS:  cpu time    0.0013: real time    0.0003
    CHARGE:  cpu time    0.1233: real time    0.0309
    MIXING:  cpu time    0.0100: real time    0.0025
    --------------------------------------------
      LOOP:  cpu time    7.5830: real time    1.9297

 eigenvalue-minimisations  :  2136
 total energy-change (2. order) : 0.1385686E-03  (-0.7962032E-04)
 number of electron      16.0000006 magnetization 
 augmentation part       -1.8801939 magnetization 

 Broyden mixing:
  rms(total) = 0.93640E-01    rms(broyden)= 0.93640E-01
  rms(prec ) = 0.95727E-01
  weight for this iteration     100.00

 eigenvalues of (default mixing * dielectric matrix)
  average eigenvalue GAMMA=   1.6572
  3.1582  1.6850  1.6850  0.8789  0.8789

 Free energy of the ion-electron system (eV)
  ---------------------------------------------------
  alpha Z        PSCENC =        30.51017296
  Ewald energy   TEWEN  =      -470.14872509
  -Hartree energ DENC   =       -55.44149596
  -exchange      EXHF   =         0.00000000
  -V(xc)+E(xc)   XCENC  =       -28.49682202
  PAW double counting   =      1742.40790755    -1680.39905052
  entropy T*S    EENTRO =        -0.00000000
  eigenvalues    EBANDS =       -13.96170731
  atomic energy  EATOM  =       468.27725597
  Solvation  Ediel_sol  =         0.00000000
  ---------------------------------------------------
  free energy    TOTEN  =        -7.25246441 eV

  energy without entropy =       -7.25246441  energy(sigma->0) =       -7.25246441


--------------------------------------------------------------------------------------------------------




----------------------------------------- Iteration    1(   7)  ---------------------------------------


    POTLOK:  cpu time    0.2440: real time    0.0649
    SETDIJ:  cpu time    0.0405: real time    0.0107
     EDDAV:  cpu time    7.1761: real time    1.8190
       DOS:  cpu time    0.0013: real time    0.0003
    CHARGE:  cpu time    0.1221: real time    0.0306
    MIXING:  cpu time    0.0101: real time    0.0026
    --------------------------------------------
      LOOP:  cpu time    7.6003: real time    1.9300

 eigenvalue-minimisations  :  2156
 total energy-change (2. order) : 0.1985212E-03  (-0.1590903E-03)
 number of electron      16.0000006 magnetization 
 augmentation part       -1.8777307 magnetization 

 Broyden mixing:
  rms(total) = 0.94351E-02    rms(broyden)= 0.94351E-02
  rms(prec ) = 0.10987E-01
  weight for this iteration     100.00

 eigenvalues of (default mixing * dielectric matrix)
  average eigenvalue GAMMA=   1.4236
  2.4885  1.6363  1.6363  1.0175  0.8816  0.8816

 Free energy of the ion-electron system (eV)
  ---------------------------------------------------
  alpha Z        PSCENC =        30.51017296
  Ewald energy   TEWEN  =      -470.14872509
  -Hartree energ DENC   =       -55.79052979
  -exchange      EXHF   =         0.00000000
  -V(xc)+E(xc)   XCENC  =       -28.47179595
  PAW double counting   =      1672.33911728    -1610.33484000
  entropy T*S    EENTRO =        -0.00000000
  eigenvalues    EBANDS =       -13.63292126
  atomic energy  EATOM  =       468.27725597
  Solvation  Ediel_sol  =         0.00000000
  ---------------------------------------------------
  free energy    TOTEN  =        -7.25226589 eV

  energy without entropy =       -7.25226589  energy(sigma->0) =       -7.25226589


--------------------------------------------------------------------------------------------------------




----------------------------------------- Iteration    1(   8)  ---------------------------------------


    POTLOK:  cpu time    0.2327: real time    0.0646
    SETDIJ:  cpu time    0.0435: real time    0.0113
     EDDAV:  cpu time    5.0875: real time    1.2949
       DOS:  cpu time    0.0013: real time    0.0003
    --------------------------------------------
      LOOP:  cpu time    5.3709: real time    1.3729

 eigenvalue-minimisations  :  1296
 total energy-change (2. order) : 0.4872393E-04  (-0.1188590E-04)
 number of electron      16.0000006 magnetization 
 augmentation part       -1.8777307 magnetization 

 Free energy of the ion-electron system (eV)
  ---------------------------------------------------
  alpha Z        PSCENC =        30.51017296
  Ewald energy   TEWEN  =      -470.14872509
  -Hartree energ DENC   =       -55.79500928
  -exchange      EXHF   =         0.00000000
  -V(xc)+E(xc)   XCENC  =       -28.46999500
  PAW double counting   =      1672.97115256    -1610.96774053
  entropy T*S    EENTRO =        -0.00000000
  eigenvalues    EBANDS =       -13.62932875
  atomic energy  EATOM  =       468.27725597
  Solvation  Ediel_sol  =         0.00000000
  ---------------------------------------------------
  free energy    TOTEN  =        -7.25221716 eV

  energy without entropy =       -7.25221716  energy(sigma->0) =       -7.25221716


--------------------------------------------------------------------------------------------------------




 average (electrostatic) potential at core
  the test charge radii are     1.2767  0.9587
  (the norm of the test charge is              1.0000)
       1 -13.8153       2 -13.8154       3 -83.4552       4 -83.4552
 
 
 
 E-fermi :   3.6837     XC(G=0):  -9.2783     alpha+bet : -9.2796


 k-point     1 :       0.0000    0.0000    0.0000
  band No.  band energies     occupation 
      1      -8.8805      2.00000
      2      -6.9336      2.00000
      3      -3.2164      2.00000
      4       2.3427      2.00000
      5       2.3427      2.00000
      6       3.4954      2.00000
      7       3.6358      2.00000
      8       3.6359      2.00000
      9       4.5443      0.00000
     10       5.0690      0.00000
     11       6.8461      0.00000
     12       6.8461      0.00000

 k-point     2 :       0.0644    0.0372    0.0000
  band No.  band energies     occupation 
      1      -8.7945      2.00000
      2      -6.8566      2.00000
      3      -3.1669      2.00000
      4       1.5725      2.00000
      5       2.1404      2.00000
      6       2.7897      2.00000
      7       3.3837      2.00000
      8       3.5014      2.00000
      9       5.2050      0.00000
     10       5.6394      0.00000
     11       6.7171      0.00000
     12       7.0870      0.00000

 k-point     3 :       0.1289    0.0744    0.0000
  band No.  band energies     occupation 
      1      -8.5402      2.00000
      2      -6.6351      2.00000
      3      -3.0515      2.00000
      4       0.3953      2.00000
      5       1.3564      2.00000
      6       1.7219      2.00000
      7       3.0503      2.00000
      8       3.0986      2.00000
      9       5.7981      0.00000
     10       6.2209      0.00000
     11       6.8232      0.00000
     12       7.6796      0.00000

 k-point     4 :       0.0644    0.1116    0.0000
  band No.  band energies     occupation 
      1      -8.6243      2.00000
      2      -6.7072      2.00000
      3      -3.0839      2.00000
      4       0.6980      2.00000
      5       1.6570      2.00000
      6       1.9470      2.00000
      7       3.1599      2.00000
      8       3.2294      2.00000
      9       5.7083      0.00000
     10       6.0845      0.00000
     11       6.7376      0.00000
     12       7.5351      0.00000

 k-point     5 :       0.0000    0.0000    0.0391
  band No.  band energies     occupation 
      1      -8.8759      2.00000
      2      -6.9479      2.00000
      3      -3.1927      2.00000
      4       2.3464      2.00000
      5       2.3464      2.00000
      6       3.4124      2.00000
      7       3.6290      2.00000
      8       3.6291      2.00000
      9       4.5492      0.00000
     10       5.1405      0.00000
     11       6.8519      0.00000
     12       6.8520      0.00000

 k-point     6 :       0.0644    0.0372    0.0391
  band No.  band energies     occupation 
      1      -8.7899      2.00000
      2      -6.8708      2.00000
      3      -3.1436      2.00000
      4       1.5770      2.00000
      5       2.1439      2.00000
      6       2.7508      2.00000
      7       3.3674      2.00000
      8       3.4942      2.00000
      9       5.2093      0.00000
     10       5.6718      0.00000
     11       6.7289      0.00000
     12       7.0939      0.00000

 k-point     7 :       0.1289    0.0744    0.0391
  band No.  band energies     occupation 
      1      -8.5356      2.00000
      2      -6.6490      2.00000
      3      -3.0299      2.00000
      4       0.4013      2.00000
      5       1.3421      2.00000
      6       1.7180      2.00000
      7       3.0425      2.00000
      8       3.0910      2.00000
      9       5.7909      0.00000
     10       6.2109      0.00000
     11       6.8591      0.00000
     12       7.6937      0.00000

 k-point     8 :       0.0644    0.1116    0.0391
  band No.  band energies     occupation 
      1      -8.6197      2.00000
      2      -6.7212      2.00000
      3      -3.0616      2.00000
      4       0.7034      2.00000
      5       1.6485      2.00000
      6       1.9349      2.00000
      7       3.1489      2.00000
      8       3.2217      2.00000
      9       5.7062      0.00000
     10       6.0817      0.00000
     11       6.7696      0.00000
     12       7.5442      0.00000

 k-point     9 :       0.0000    0.0000    0.0782
  band No.  band energies     occupation 
      1      -8.8621      2.00000
      2      -6.9897      2.00000
      3      -3.1227      2.00000
      4       2.3575      2.00000
      5       2.3576      2.00000
      6       3.1991      2.00000
      7       3.6089      2.00000
      8       3.6090      2.00000
      9       4.5641      0.00000
     10       5.3162      0.00000
     11       6.8693      0.00000
     12       7.2338      0.00000

 k-point    10 :       0.0644    0.0372    0.0782
  band No.  band energies     occupation 
      1      -8.7761      2.00000
      2      -6.9123      2.00000
      3      -3.0748      2.00000
      4       1.5902      2.00000
      5       2.1540      2.00000
      6       2.6379      2.00000
      7       3.3229      2.00000
      8       3.4727      2.00000
      9       5.2223      0.00000
     10       5.7610      0.00000
     11       6.7625      0.00000
     12       7.1145      0.00000

 k-point    11 :       0.1289    0.0744    0.0782
  band No.  band energies     occupation 
      1      -8.5221      2.00000
      2      -6.6894      2.00000
      3      -2.9662      2.00000
      4       0.4190      2.00000
      5       1.2965      2.00000
      6       1.7112      2.00000
      7       3.0164      2.00000
      8       3.0683      2.00000
      9       5.7719      0.00000
     10       6.1959      0.00000
     11       6.9509      0.00000
     12       7.7333      0.00000

 k-point    12 :       0.0644    0.1116    0.0782
  band No.  band energies     occupation 
      1      -8.6061      2.00000
      2      -6.7620      2.00000
      3      -2.9959      2.00000
      4       0.7195      2.00000
      5       1.6160      2.00000
      6       1.9079      2.00000
      7       3.1139      2.00000
      8       3.1986      2.00000
      9       5.7023      0.00000
     10       6.0815      0.00000
     11       6.8551      0.00000
     12       7.5713      0.00000

 k-point    13 :       0.0000    0.0000    0.5000
  band No.  band energies     occupation 
      1      -8.1583      2.00000
      2      -8.1583      2.00000
      3      -0.4960      2.00000
      4      -0.4960      2.00000
      5       2.8952      2.00000
      6       2.8952      2.00000
      7       2.8952      2.00000
      8       2.8952      2.00000
      9       5.3177      0.00000
     10       5.3177      0.00000
     11       7.6427      0.00000
     12       7.6427      0.00000

 k-point    14 :       0.0000    0.0312    0.5000
  band No.  band energies     occupation 
      1      -8.1480      2.00000
      2      -8.1480      2.00000
      3      -0.4980      2.00000
      4      -0.4980      2.00000
      5       2.7928      2.00000
      6       2.7928      2.00000
      7       2.8738      2.00000
      8       2.8738      2.00000
      9       5.4152      0.00000
     10       5.4152      0.00000
     11       7.6126      0.00000
     12       7.6126      0.00000

 k-point    15 :       0.0000    0.0625    0.5000
  band No.  band energies     occupation 
      1      -8.1172      2.00000
      2      -8.1172      2.00000
      3      -0.5058      2.00000
      4      -0.5058      2.00000
      5       2.5328      2.00000
      6       2.5328      2.00000
      7       2.8120      2.00000
      8       2.8120      2.00000
      9       5.6526      0.00000
     10       5.6526      0.00000
     11       7.5239      0.00000
     12       7.5239      0.00000

 k-point    16 :       0.0000    0.0938    0.5000
  band No.  band energies     occupation 
      1      -8.0660      2.00000
      2      -8.0660      2.00000
      3      -0.5257      2.00000
      4      -0.5257      2.00000
      5       2.1978      2.00000
      6       2.1978      2.00000
      7       2.7167      2.00000
      8       2.7167      2.00000
      9       5.9162      0.00000
     10       5.9162      0.00000
     11       7.4566      0.00000
     12       7.4566      0.00000

 k-point    17 :       0.0000    0.1250    0.5000
  band No.  band energies     occupation 
      1      -7.9949      2.00000
      2      -7.9949      2.00000
      3      -0.5695      2.00000
      4      -0.5695      2.00000
      5       1.8514      2.00000
      6       1.8514      2.00000
      7       2.5966      2.00000
      8       2.5966      2.00000
      9       6.0835      0.00000
     10       6.0835      0.00000
     11       7.4940      0.00000
     12       7.4940      0.00000

 k-point    18 :       0.0000    0.1562    0.5000
  band No.  band energies     occupation 
      1      -7.9044      2.00000
      2      -7.9044      2.00000
      3      -0.6550      2.00000
      4      -0.6550      2.00000
      5       1.5390      2.00000
      6       1.5390      2.00000
      7       2.4609      2.00000
      8       2.4609      2.00000
      9       6.0884      0.00000
     10       6.0884      0.00000
     11       7.6641      0.00000
     12       7.6641      0.00000

 k-point    19 :       0.0000    0.1875    0.5000
  band No.  band energies     occupation 
      1      -7.7955      2.00000
      2      -7.7955      2.00000
      3      -0.8022      2.00000
      4      -0.8021      2.00000
      5       1.2953      2.00000
      6       1.2953      2.00000
      7       2.3179      2.00000
      8       2.3179      2.00000
      9       5.9773      0.00000
     10       5.9773      0.00000
     11       7.8420      0.00000
     12       7.8420      0.00000

 k-point    20 :       0.0000    0.2188    0.5000
  band No.  band energies     occupation 
      1      -7.6693      2.00000
      2      -7.6693      2.00000
      3      -1.0213      2.00000
      4      -1.0213      2.00000
      5       1.1394      2.00000
      6       1.1394      2.00000
      7       2.1743      2.00000
      8       2.1743      2.00000
      9       5.8178      0.00000
     10       5.8178      0.00000
     11       7.8602      0.00000
     12       7.8602      0.00000

 k-point    21 :       0.0000    0.2500    0.5000
  band No.  band energies     occupation 
      1      -7.5275      2.00000
      2      -7.5275      2.00000
      3      -1.3034      2.00000
      4      -1.3034      2.00000
      5       1.0675      2.00000
      6       1.0675      2.00000
      7       2.0356      2.00000
      8       2.0356      2.00000
      9       5.6470      0.00000
     10       5.6470      0.00000
     11       7.7070      0.00000
     12       7.7070      0.00000

 k-point    22 :       0.0000    0.2812    0.5000
  band No.  band energies     occupation 
      1      -7.3726      2.00000
      2      -7.3726      2.00000
      3      -1.6257      2.00000
      4      -1.6257      2.00000
      5       1.0602      2.00000
      6       1.0602      2.00000
      7       1.9060      2.00000
      8       1.9060      2.00000
      9       5.4821      0.00000
     10       5.4821      0.00000
     11       7.4705      0.00000
     12       7.4705      0.00000

 k-point    23 :       0.0000    0.3125    0.5000
  band No.  band energies     occupation 
      1      -7.2080      2.00000
      2      -7.2080      2.00000
      3      -1.9635      2.00000
      4      -1.9635      2.00000
      5       1.0957      2.00000
      6       1.0957      2.00000
      7       1.7886      2.00000
      8       1.7886      2.00000
      9       5.3316      0.00000
     10       5.3316      0.00000
     11       7.2093      0.00000
     12       7.2093      0.00000

 k-point    24 :       0.0000    0.3438    0.5000
  band No.  band energies     occupation 
      1      -7.0386      2.00000
      2      -7.0386      2.00000
      3      -2.2964      2.00000
      4      -2.2964      2.00000
      5       1.1557      2.00000
      6       1.1557      2.00000
      7       1.6860      2.00000
      8       1.6860      2.00000
      9       5.2000      0.00000
     10       5.2000      0.00000
     11       6.9534      0.00000
     12       6.9534      0.00000

 k-point    25 :       0.0000    0.3750    0.5000
  band No.  band energies     occupation 
      1      -6.8716      2.00000
      2      -6.8716      2.00000
      3      -2.6067      2.00000
      4      -2.6067      2.00000
      5       1.2260      2.00000
      6       1.2260      2.00000
      7       1.5998      2.00000
      8       1.5998      2.00000
      9       5.0900      0.00000
     10       5.0900      0.00000
     11       6.7209      0.00000
     12       6.7209      0.00000

 k-point    26 :       0.0000    0.4062    0.5000
  band No.  band energies     occupation 
      1      -6.7171      2.00000
      2      -6.7170      2.00000
      3      -2.8777      2.00000
      4      -2.8777      2.00000
      5       1.2949      2.00000
      6       1.2949      2.00000
      7       1.5316      2.00000
      8       1.5316      2.00000
      9       5.0031      0.00000
     10       5.0031      0.00000
     11       6.5249      0.00000
     12       6.5249      0.00000

 k-point    27 :       0.0000    0.4375    0.5000
  band No.  band energies     occupation 
      1      -6.5885      2.00000
      2      -6.5885      2.00000
      3      -3.0919      2.00000
      4      -3.0919      2.00000
      5       1.3524      2.00000
      6       1.3524      2.00000
      7       1.4822      2.00000
      8       1.4822      2.00000
      9       4.9404      0.00000
     10       4.9404      0.00000
     11       6.3762      0.00000
     12       6.3762      0.00000

 k-point    28 :       0.0000    0.4688    0.5000
  band No.  band energies     occupation 
      1      -6.5018      2.00000
      2      -6.5018      2.00000
      3      -3.2309      2.00000
      4      -3.2309      2.00000
      5       1.3906      2.00000
      6       1.3906      2.00000
      7       1.4523      2.00000
      8       1.4523      2.00000
      9       4.9024      0.00000
     10       4.9024      0.00000
     11       6.2832      0.00000
     12       6.2832      0.00000

 k-point    29 :       0.0000    0.5000    0.5000
  band No.  band energies     occupation 
      1      -6.4710      2.00000
      2      -6.4710      2.00000
      3      -3.2793      2.00000
      4      -3.2793      2.00000
      5       1.4039      2.00000
      6       1.4040      2.00000
      7       1.4423      2.00000
      8       1.4423      2.00000
      9       4.8897      0.00000
     10       4.8897      0.00000
     11       6.2516      0.00000
     12       6.2516      0.00000

 k-point    30 :       0.0000    0.5000    0.4375
  band No.  band energies     occupation 
      1      -6.5727      2.00000
      2      -6.3675      2.00000
      3      -3.3823      2.00000
      4      -3.1493      2.00000
      5       1.0867      2.00000
      6       1.3023      2.00000
      7       1.5918      2.00000
      8       1.6453      2.00000
      9       4.7455      0.00000
     10       5.0019      0.00000
     11       6.3399      0.00000
     12       6.3464      0.00000

 k-point    31 :       0.0000    0.5000    0.3750
  band No.  band energies     occupation 
      1      -6.6684      2.00000
      2      -6.2672      2.00000
      3      -3.4546      2.00000
      4      -2.9977      2.00000
      5       0.7369      2.00000
      6       1.1754      2.00000
      7       1.7461      2.00000
      8       1.7623      2.00000
      9       4.6905      0.00000
     10       5.0097      0.00000
     11       6.5302      0.00000
     12       6.6591      0.00000

 k-point    32 :       0.0000    0.5000    0.3125
  band No.  band energies     occupation 
      1      -6.7546      2.00000
      2      -6.1752      2.00000
      3      -3.4944      2.00000
      4      -2.8318      2.00000
      5       0.3856      2.00000
      6       1.0643      2.00000
      7       1.7347      2.00000
      8       1.8994      2.00000
      9       4.7872      0.00000
     10       4.9491      0.00000
     11       6.7668      0.00000
     12       7.1276      0.00000

 k-point    33 :       0.0000    0.5000    0.2500
  band No.  band energies     occupation 
      1      -6.8283      2.00000
      2      -6.0960      2.00000
      3      -3.5034      2.00000
      4      -2.6610      2.00000
      5       0.0558      2.00000
      6       0.9709      2.00000
      7       1.5964      2.00000
      8       2.0444      2.00000
      9       4.8694      0.00000
     10       5.0200      0.00000
     11       7.0057      0.00000
     12       7.6838      0.00000

 k-point    34 :       0.0000    0.5000    0.1875
  band No.  band energies     occupation 
      1      -6.8877      2.00000
      2      -6.0330      2.00000
      3      -3.4879      2.00000
      4      -2.4980      2.00000
      5      -0.2326      2.00000
      6       0.8969      2.00000
      7       1.4097      2.00000
      8       2.1722      2.00000
      9       4.7956      0.00000
     10       5.3353      0.00000
     11       7.1903      0.00000
     12       8.2856      0.00000

 k-point    35 :       0.0000    0.5000    0.1250
  band No.  band energies     occupation 
      1      -6.9311      2.00000
      2      -5.9879      2.00000
      3      -3.4591      2.00000
      4      -2.3594      2.00000
      5      -0.4601      2.00000
      6       0.8433      2.00000
      7       1.2316      2.00000
      8       2.2734      2.00000
      9       4.7386      0.00000
     10       5.6768      0.00000
     11       7.2499      0.00000
     12       8.0853      0.00000

 k-point    36 :       0.0000    0.5000    0.0625
  band No.  band energies     occupation 
      1      -6.9575      2.00000
      2      -5.9610      2.00000
      3      -3.4323      2.00000
      4      -2.2644      2.00000
      5      -0.6074      2.00000
      6       0.8108      2.00000
      7       1.1052      2.00000
      8       2.3386      2.00000
      9       4.7030      0.00000
     10       5.9778      0.00000
     11       7.1752      0.00000
     12       7.9526      0.00000

 k-point    37 :       0.0000    0.5000    0.0000
  band No.  band energies     occupation 
      1      -6.9664      2.00000
      2      -5.9521      2.00000
      3      -3.4213      2.00000
      4      -2.2303      2.00000
      5      -0.6586      2.00000
      6       0.8000      2.00000
      7       1.0595      2.00000
      8       2.3613      2.00000
      9       4.6910      0.00000
     10       6.1146      0.00000
     11       7.1058      0.00000
     12       7.9075      0.00000

 k-point    38 :       0.0000    0.4688    0.0000
  band No.  band energies     occupation 
      1      -7.0133      2.00000
      2      -5.9383      2.00000
      3      -3.4265      2.00000
      4      -2.1621      2.00000
      5      -0.6828      2.00000
      6       0.8103      2.00000
      7       1.1033      2.00000
      8       2.3708      2.00000
      9       4.7008      0.00000
     10       6.1224      0.00000
     11       7.1150      0.00000
     12       7.9111      0.00000

 k-point    39 :       0.0000    0.4375    0.0000
  band No.  band energies     occupation 
      1      -7.1370      2.00000
      2      -5.9155      2.00000
      3      -3.4249      2.00000
      4      -1.9757      2.00000
      5      -0.7440      2.00000
      6       0.8410      2.00000
      7       1.2251      2.00000
      8       2.3992      2.00000
      9       4.7298      0.00000
     10       6.1454      0.00000
     11       7.1423      0.00000
     12       7.9209      0.00000

 k-point    40 :       0.0000    0.4062    0.0000
  band No.  band energies     occupation 
      1      -7.3054      2.00000
      2      -5.9152      2.00000
      3      -3.3888      2.00000
      4      -1.7058      2.00000
      5      -0.8158      2.00000
      6       0.8919      2.00000
      7       1.4035      2.00000
      8       2.4461      2.00000
      9       4.7770      0.00000
     10       6.1815      0.00000
     11       7.1871      0.00000
     12       7.9348      0.00000

 k-point    41 :       0.0000    0.3750    0.0000
  band No.  band energies     occupation 
      1      -7.4939      2.00000
      2      -5.9546      2.00000
      3      -3.3107      2.00000
      4      -1.3831      2.00000
      5      -0.8647      2.00000
      6       0.9622      2.00000
      7       1.6179      2.00000
      8       2.5107      2.00000
      9       4.8405      0.00000
     10       6.2273      0.00000
     11       7.2475      0.00000
     12       7.9488      0.00000

 k-point    42 :       0.0000    0.3438    0.0000
  band No.  band energies     occupation 
      1      -7.6873      2.00000
      2      -6.0320      2.00000
      3      -3.2068      2.00000
      4      -1.0597      2.00000
      5      -0.8272      2.00000
      6       1.0512      2.00000
      7       1.8521      2.00000
      8       2.5918      2.00000
      9       4.9182      0.00000
     10       6.2767      0.00000
     11       7.3185      0.00000
     12       7.9567      0.00000

 k-point    43 :       0.0000    0.3125    0.0000
  band No.  band energies     occupation 
      1      -7.8764      2.00000
      2      -6.1362      2.00000
      3      -3.1064      2.00000
      4      -0.8864      2.00000
      5      -0.5363      2.00000
      6       1.1575      2.00000
      7       2.0941      2.00000
      8       2.6880      2.00000
      9       5.0077      0.00000
     10       6.3208      0.00000
     11       7.3916      0.00000
     12       7.9501      0.00000

 k-point    44 :       0.0000    0.2812    0.0000
  band No.  band energies     occupation 
      1      -8.0558      2.00000
      2      -6.2547      2.00000
      3      -3.0357      2.00000
      4      -0.7239      2.00000
      5      -0.1204      2.00000
      6       1.2795      2.00000
      7       2.3345      2.00000
      8       2.7971      2.00000
      9       5.1067      0.00000
     10       6.3475      0.00000
     11       7.4568      0.00000
     12       7.9232      0.00000

 k-point    45 :       0.0000    0.2500    0.0000
  band No.  band energies     occupation 
      1      -8.2217      2.00000
      2      -6.3769      2.00000
      3      -3.0059      2.00000
      4      -0.4823      2.00000
      5       0.3278      2.00000
      6       1.4148      2.00000
      7       2.5653      2.00000
      8       2.9162      2.00000
      9       5.2120      0.00000
     10       6.3440      0.00000
     11       7.5129      0.00000
     12       7.8693      0.00000

 k-point    46 :       0.0000    0.2188    0.0000
  band No.  band energies     occupation 
      1      -8.3717      2.00000
      2      -6.4953      2.00000
      3      -3.0118      2.00000
      4      -0.1648      2.00000
      5       0.7942      2.00000
      6       1.5604      2.00000
      7       2.7793      2.00000
      8       3.0419      2.00000
      9       5.3184      0.00000
     10       6.3013      0.00000
     11       7.5660      0.00000
     12       7.7494      0.00000

 k-point    47 :       0.0000    0.1875    0.0000
  band No.  band energies     occupation 
      1      -8.5041      2.00000
      2      -6.6048      2.00000
      3      -3.0411      2.00000
      4       0.2111      2.00000
      5       1.2722      2.00000
      6       1.7123      2.00000
      7       2.9705      2.00000
      8       3.1694      2.00000
      9       5.4133      0.00000
     10       6.2161      0.00000
     11       7.4288      0.00000
     12       7.5976      0.00000

 k-point    48 :       0.0000    0.1562    0.0000
  band No.  band energies     occupation 
      1      -8.6177      2.00000
      2      -6.7016      2.00000
      3      -3.0815      2.00000
      4       0.6266      2.00000
      5       1.7558      2.00000
      6       1.8650      2.00000
      7       3.1341      2.00000
      8       3.2932      2.00000
      9       5.4670      0.00000
     10       6.0857      0.00000
     11       7.0978      0.00000
     12       7.4235      0.00000

 k-point    49 :       0.0000    0.1250    0.0000
  band No.  band energies     occupation 
      1      -8.7116      2.00000
      2      -6.7833      2.00000
      3      -3.1239      2.00000
      4       1.0629      2.00000
      5       2.0116      2.00000
      6       2.2375      2.00000
      7       3.2674      2.00000
      8       3.4066      2.00000
      9       5.4212      0.00000
     10       5.9042      0.00000
     11       6.8502      0.00000
     12       7.2466      0.00000

 k-point    50 :       0.0000    0.0938    0.0000
  band No.  band energies     occupation 
      1      -8.7852      2.00000
      2      -6.8483      2.00000
      3      -3.1619      2.00000
      4       1.4991      2.00000
      5       2.1431      2.00000
      6       2.7058      2.00000
      7       3.3695      2.00000
      8       3.5028      2.00000
      9       5.2256      0.00000
     10       5.6773      0.00000
     11       6.7559      0.00000
     12       7.0850      0.00000

 k-point    51 :       0.0000    0.0625    0.0000
  band No.  band energies     occupation 
      1      -8.8380      2.00000
      2      -6.8955      2.00000
      3      -3.1914      2.00000
      4       1.9034      2.00000
      5       2.2490      2.00000
      6       3.1389      2.00000
      7       3.4413      2.00000
      8       3.5756      2.00000
      9       4.9303      0.00000
     10       5.4228      0.00000
     11       6.7745      0.00000
     12       6.9566      0.00000

 k-point    52 :       0.0000    0.0312    0.0000
  band No.  band energies     occupation 
      1      -8.8699      2.00000
      2      -6.9240      2.00000
      3      -3.2100      2.00000
      4       2.2170      2.00000
      5       2.3184      2.00000
      6       3.4703      2.00000
      7       3.4996      2.00000
      8       3.6207      2.00000
      9       4.6588      0.00000
     10       5.1819      0.00000
     11       6.8234      0.00000
     12       6.8744      0.00000

 k-point    53 :       0.0000    0.0000    0.0000
  band No.  band energies     occupation 
      1      -8.8805      2.00000
      2      -6.9336      2.00000
      3      -3.2164      2.00000
      4       2.3427      2.00000
      5       2.3427      2.00000
      6       3.4954      2.00000
      7       3.6358      2.00000
      8       3.6359      2.00000
      9       4.5443      0.00000
     10       5.0690      0.00000
     11       6.8461      0.00000
     12       6.8464      0.00000

 k-point    54 :       0.0000    0.0000    0.0625
  band No.  band energies     occupation 
      1      -8.8687      2.00000
      2      -6.9698      2.00000
      3      -3.1561      2.00000
      4       2.3522      2.00000
      5       2.3522      2.00000
      6       3.2963      2.00000
      7       3.6185      2.00000
      8       3.6186      2.00000
      9       4.5569      0.00000
     10       5.2376      0.00000
     11       6.8610      0.00000
     12       6.8610      0.00000

 k-point    55 :       0.0000    0.0000    0.1250
  band No.  band energies     occupation 
      1      -8.8335      2.00000
      2      -7.0713      2.00000
      3      -2.9825      2.00000
      4       2.3806      2.00000
      5       2.3806      2.00000
      6       2.8511      2.00000
      7       3.5684      2.00000
      8       3.5684      2.00000
      9       4.5948      0.00000
     10       5.5713      0.00000
     11       6.9048      0.00000
     12       6.9049      0.00000

 k-point    56 :       0.0000    0.0000    0.1875
  band No.  band energies     occupation 
      1      -8.7751      2.00000
      2      -7.2213      2.00000
      3      -2.7128      2.00000
      4       2.3171      2.00000
      5       2.4274      2.00000
      6       2.4274      2.00000
      7       3.4897      2.00000
      8       3.4897      2.00000
      9       4.6576      0.00000
     10       5.8439      0.00000
     11       6.9757      0.00000
     12       6.9759      0.00000

 k-point    57 :       0.0000    0.0000    0.2500
  band No.  band energies     occupation 
      1      -8.6938      2.00000
      2      -7.4011      2.00000
      3      -2.3663      2.00000
      4       1.7520      2.00000
      5       2.4918      2.00000
      6       2.4918      2.00000
      7       3.3888      2.00000
      8       3.3889      2.00000
      9       4.7450      0.00000
     10       5.9255      0.00000
     11       7.0710      0.00000
     12       7.0711      0.00000

 k-point    58 :       0.0000    0.0000    0.3125
  band No.  band energies     occupation 
      1      -8.5904      2.00000
      2      -7.5947      2.00000
      3      -1.9599      2.00000
      4       1.1782      2.00000
      5       2.5726      2.00000
      6       2.5727      2.00000
      7       3.2726      2.00000
      8       3.2726      2.00000
      9       4.8564      0.00000
     10       5.8430      0.00000
     11       7.1880      0.00000
     12       7.1880      0.00000

 k-point    59 :       0.0000    0.0000    0.3750
  band No.  band energies     occupation 
      1      -8.4657      2.00000
      2      -7.7904      2.00000
      3      -1.5066      2.00000
      4       0.6073      2.00000
      5       2.6683      2.00000
      6       2.6683      2.00000
      7       3.1477      2.00000
      8       3.1478      2.00000
      9       4.9905      0.00000
     10       5.6843      0.00000
     11       7.3240      0.00000
     12       7.3241      0.00000

 k-point    60 :       0.0000    0.0000    0.4375
  band No.  band energies     occupation 
      1      -8.3211      2.00000
      2      -7.9802      2.00000
      3      -1.0160      2.00000
      4       0.0471      2.00000
      5       2.7767      2.00000
      6       2.7768      2.00000
      7       3.0202      2.00000
      8       3.0203      2.00000
      9       5.1454      0.00000
     10       5.5012      0.00000
     11       7.4765      0.00000
     12       7.4768      0.00000

 k-point    61 :       0.0000    0.0000    0.5000
  band No.  band energies     occupation 
      1      -8.1583      2.00000
      2      -8.1583      2.00000
      3      -0.4960      2.00000
      4      -0.4960      2.00000
      5       2.8952      2.00000
      6       2.8952      2.00000
      7       2.8952      2.00000
      8       2.8952      2.00000
      9       5.3177      0.00000
     10       5.3177      0.00000
     11       7.6427      0.00000
     12       7.6427      0.00000

 k-point    62 :      -0.0303    0.0303    0.5000
  band No.  band energies     occupation 
      1      -8.1486      2.00000
      2      -8.1486      2.00000
      3      -0.4978      2.00000
      4      -0.4978      2.00000
      5       2.7987      2.00000
      6       2.7987      2.00000
      7       2.8750      2.00000
      8       2.8750      2.00000
      9       5.4097      0.00000
     10       5.4097      0.00000
     11       7.6103      0.00000
     12       7.6103      0.00000

 k-point    63 :      -0.0606    0.0606    0.5000
  band No.  band energies     occupation 
      1      -8.1196      2.00000
      2      -8.1196      2.00000
      3      -0.5050      2.00000
      4      -0.5050      2.00000
      5       2.5515      2.00000
      6       2.5515      2.00000
      7       2.8168      2.00000
      8       2.8168      2.00000
      9       5.6363      0.00000
     10       5.6363      0.00000
     11       7.5292      0.00000
     12       7.5292      0.00000

 k-point    64 :      -0.0909    0.0909    0.5000
  band No.  band energies     occupation 
      1      -8.0715      2.00000
      2      -8.0715      2.00000
      3      -0.5231      2.00000
      4      -0.5231      2.00000
      5       2.2296      2.00000
      6       2.2296      2.00000
      7       2.7265      2.00000
      8       2.7265      2.00000
      9       5.8944      0.00000
     10       5.8944      0.00000
     11       7.4597      0.00000
     12       7.4597      0.00000

 k-point    65 :      -0.1212    0.1212    0.5000
  band No.  band energies     occupation 
      1      -8.0045      2.00000
      2      -8.0045      2.00000
      3      -0.5624      2.00000
      4      -0.5624      2.00000
      5       1.8924      2.00000
      6       1.8924      2.00000
      7       2.6121      2.00000
      8       2.6121      2.00000
      9       6.0717      0.00000
     10       6.0717      0.00000
     11       7.4816      0.00000
     12       7.4816      0.00000

 k-point    66 :      -0.1515    0.1515    0.5000
  band No.  band energies     occupation 
      1      -7.9193      2.00000
      2      -7.9193      2.00000
      3      -0.6386      2.00000
      4      -0.6385      2.00000
      5       1.5826      2.00000
      6       1.5826      2.00000
      7       2.4821      2.00000
      8       2.4821      2.00000
      9       6.0970      0.00000
     10       6.0970      0.00000
     11       7.6332      0.00000
     12       7.6332      0.00000

 k-point    67 :      -0.1818    0.1818    0.5000
  band No.  band energies     occupation 
      1      -7.8166      2.00000
      2      -7.8166      2.00000
      3      -0.7701      2.00000
      4      -0.7701      2.00000
      5       1.3334      2.00000
      6       1.3334      2.00000
      7       2.3441      2.00000
      8       2.3441      2.00000
      9       6.0027      0.00000
     10       6.0027      0.00000
     11       7.8178      0.00000
     12       7.8178      0.00000

 k-point    68 :      -0.2121    0.2121    0.5000
  band No.  band energies     occupation 
      1      -7.6974      2.00000
      2      -7.6974      2.00000
      3      -0.9689      2.00000
      4      -0.9689      2.00000
      5       1.1650      2.00000
      6       1.1650      2.00000
      7       2.2045      2.00000
      8       2.2045      2.00000
      9       5.8534      0.00000
     10       5.8535      0.00000
     11       7.8733      0.00000
     12       7.8733      0.00000

 k-point    69 :      -0.2424    0.2424    0.5000
  band No.  band energies     occupation 
      1      -7.5632      2.00000
      2      -7.5632      2.00000
      3      -1.2303      2.00000
      4      -1.2303      2.00000
      5       1.0782      2.00000
      6       1.0782      2.00000
      7       2.0685      2.00000
      8       2.0685      2.00000
      9       5.6883      0.00000
     10       5.6883      0.00000
     11       7.7550      0.00000
     12       7.7550      0.00000

 k-point    70 :      -0.2727    0.2727    0.5000
  band No.  band energies     occupation 
      1      -7.4160      2.00000
      2      -7.4160      2.00000
      3      -1.5352      2.00000
      4      -1.5352      2.00000
      5       1.0571      2.00000
      6       1.0571      2.00000
      7       1.9402      2.00000
      8       1.9402      2.00000
      9       5.5258      0.00000
     10       5.5259      0.00000
     11       7.5392      0.00000
     12       7.5392      0.00000

 k-point    71 :      -0.3030    0.3030    0.5000
  band No.  band energies     occupation 
      1      -7.2586      2.00000
      2      -7.2586      2.00000
      3      -1.8608      2.00000
      4      -1.8608      2.00000
      5       1.0816      2.00000
      6       1.0816      2.00000
      7       1.8227      2.00000
      8       1.8227      2.00000
      9       5.3753      0.00000
     10       5.3753      0.00000
     11       7.2890      0.00000
     12       7.2890      0.00000

 k-point    72 :      -0.3333    0.3333    0.5000
  band No.  band energies     occupation 
      1      -7.0952      2.00000
      2      -7.0952      2.00000
      3      -2.1871      2.00000
      4      -2.1871      2.00000
      5       1.1339      2.00000
      6       1.1339      2.00000
      7       1.7184      2.00000
      8       1.7184      2.00000
      9       5.2415      0.00000
     10       5.2416      0.00000
     11       7.0369      0.00000
     12       7.0369      0.00000


--------------------------------------------------------------------------------------------------------


 soft charge-density along one line, spin component           1
         0         1         2         3         4         5         6         7         8         9
 total charge-density along one line
 
 pseudopotential strength for first ion, spin component:           1
  5.498   6.569  -0.000  -0.010   0.000  -0.000  -0.020   0.000
  6.569   7.839  -0.000  -0.013   0.000  -0.000  -0.025   0.000
 -0.000  -0.000   1.236  -0.000   0.000   2.058  -0.000   0.000
 -0.010  -0.013  -0.000   1.234   0.000  -0.000   2.055   0.000
  0.000   0.000   0.000   0.000   1.236   0.000   0.000   2.058
 -0.000  -0.000   2.058  -0.000   0.000   3.443  -0.000   0.000
 -0.020  -0.025  -0.000   2.055   0.000  -0.000   3.437   0.000
  0.000   0.000   0.000   0.000   2.058   0.000   0.000   3.443
  0.000   0.000   0.000  -0.000   0.002   0.000  -0.000   0.003
 -0.000  -0.000  -0.005  -0.000  -0.000  -0.009  -0.000  -0.000
 -0.003  -0.003   0.000   0.001  -0.000   0.000   0.000  -0.000
  0.000   0.000  -0.000   0.000  -0.005  -0.000   0.000  -0.009
 -0.000  -0.000   0.002   0.000   0.000   0.003   0.000   0.000
 total augmentation occupancy for first ion, spin component:           1
  6.112  -3.077   0.000   0.080   0.000   0.000   0.006   0.000   0.000  -0.000  -0.124  -0.000  -0.000
 -3.077   1.794   0.000   0.028   0.000  -0.000  -0.037  -0.000  -0.000   0.000   0.085   0.000   0.000
  0.000   0.000   1.902   0.000   0.000  -0.307  -0.000  -0.000  -0.000  -0.185   0.000  -0.000   0.368
  0.080   0.028   0.000   2.426   0.000  -0.000  -0.572  -0.000  -0.000   0.000   0.337   0.000   0.000
  0.000   0.000   0.000   0.000   1.902  -0.000  -0.000  -0.307   0.368  -0.000  -0.000  -0.185   0.000
  0.000  -0.000  -0.307  -0.000  -0.000   0.054   0.000   0.000   0.000   0.026  -0.000   0.000  -0.055
  0.006  -0.037  -0.000  -0.572  -0.000   0.000   0.152   0.000   0.000  -0.000  -0.060  -0.000  -0.000
  0.000  -0.000  -0.000  -0.000  -0.307   0.000   0.000   0.054  -0.055   0.000   0.000   0.026  -0.000
  0.000  -0.000  -0.000  -0.000   0.368   0.000   0.000  -0.055   0.101   0.000  -0.000  -0.048  -0.000
 -0.000   0.000  -0.185   0.000  -0.000   0.026  -0.000   0.000   0.000   0.038   0.000   0.000  -0.048
 -0.124   0.085   0.000   0.337  -0.000  -0.000  -0.060   0.000  -0.000   0.000   0.115   0.000   0.000
 -0.000   0.000  -0.000   0.000  -0.185   0.000  -0.000   0.026  -0.048   0.000   0.000   0.038  -0.000
 -0.000   0.000   0.368   0.000   0.000  -0.055  -0.000  -0.000  -0.000  -0.048   0.000  -0.000   0.101


------------------------ aborting loop because EDIFF is reached ----------------------------------------


    CHARGE:  cpu time    0.1237: real time    0.0348
    FORLOC:  cpu time    0.0274: real time    0.0075
    FORNL :  cpu time    1.4156: real time    0.5251
    STRESS:  cpu time    4.2163: real time    1.1134
    FORCOR:  cpu time    0.2787: real time    0.0699
    FORHAR:  cpu time    0.0599: real time    0.0163
    MIXING:  cpu time    0.0027: real time    0.0027
    OFIELD:  cpu time    0.0000: real time    0.0000

  FORCE on cell =-STRESS in cart. coord.  units (eV):
  Direction    XX          YY          ZZ          XY          YZ          ZX
  --------------------------------------------------------------------------------------
  Alpha Z    30.51017    30.51017    30.51017
  Ewald    -158.23417  -158.23359  -153.68128     0.00050     0.00000     0.00000
  Hartree    16.99881    16.99877    21.85524    -0.00003    -0.00000     0.00000
  E(xc)     -56.60565   -56.60566   -56.26418    -0.00001    -0.00000     0.00000
  Local     -83.55314   -83.55346   -89.72310    -0.00028    -0.00000     0.00001
  n-local   130.49818   125.82125   125.24947    -4.45522    -0.88069    -0.55433
  augment   -14.36469   -14.36466   -13.64651     0.00002    -0.00000     0.00000
  Kinetic   154.19125   151.84294   138.91372    -2.39319    -1.39354    -0.86659
  Fock        0.00000     0.00000     0.00000     0.00000     0.00000     0.00000
  -------------------------------------------------------------------------------------
  Total      15.92825    15.92825     3.21355     0.00000     0.00000     0.00000
  in kB     306.01281   306.01281    61.73867     0.00000     0.00000     0.00000
  external pressure =      224.59 kB  Pullay stress =        0.00 kB


 VOLUME and BASIS-vectors are now :
 -----------------------------------------------------------------------------
  energy-cutoff  :      500.00
  volume of cell :       83.39
      direct lattice vectors                 reciprocal lattice vectors
     3.880356700  0.000000000  0.000000000     0.257708267  0.148787937 -0.000000000
    -1.940178350  3.360487478  0.000000000     0.000000000  0.297575875 -0.000000000
     0.000000000  0.000000000  6.395361100     0.000000000  0.000000000  0.156363337

  length of vectors
     3.880356700  3.880356700  6.395361100     0.297575875  0.297575875  0.156363337


 FORCES acting on ions
    electron-ion (+dipol)            ewald-force                    non-local-force                 convergence-correction
 -----------------------------------------------------------------------------------------------
   -.902E-04 0.520E-04 -.407E+00   -.115E-03 0.666E-04 0.117E+01   0.556E-17 0.842E-17 0.686E-01   -.139E-07 0.803E-08 -.839E-03
   0.621E-04 -.360E-04 -.407E+00   0.115E-03 -.666E-04 0.117E+01   0.210E-17 0.584E-17 0.686E-01   0.936E-08 -.541E-08 -.839E-03
   -.669E-03 0.386E-03 -.254E+00   -.121E-03 0.700E-04 -.117E+01   -.800E-16 0.334E-16 0.602E+00   0.697E-07 -.402E-07 -.628E-02
   0.234E-03 -.135E-03 -.254E+00   0.121E-03 -.700E-04 -.117E+01   0.100E-15 0.532E-17 0.602E+00   -.287E-07 0.165E-07 -.628E-02
 -----------------------------------------------------------------------------------------------
   -.463E-03 0.267E-03 -.132E+01   -.563E-15 -.133E-14 0.000E+00   0.278E-16 0.530E-16 0.134E+01   0.365E-07 -.211E-07 -.142E-01
 
 
 POSITION                                       TOTAL-FORCE (eV/Angst)
 -----------------------------------------------------------------------------------
      1.94018      1.12016      3.19729         0.000000      0.000000      0.828640
     -0.00000      2.24033      6.39497         0.000000      0.000000      0.828640
      1.94018      1.12016      5.58994        -0.000000     -0.000000     -0.828640
     -0.00000      2.24033      2.39226        -0.000000     -0.000000     -0.828640
 -----------------------------------------------------------------------------------
    total drift:                               -0.000463      0.000267      0.004236


--------------------------------------------------------------------------------------------------------



  FREE ENERGIE OF THE ION-ELECTRON SYSTEM (eV)
  ---------------------------------------------------
  free  energy   TOTEN  =        -7.25221716 eV

  energy  without entropy=       -7.25221716  energy(sigma->0) =       -7.25221716
 


--------------------------------------------------------------------------------------------------------


    POTLOK:  cpu time    0.0681: real time    0.0681


--------------------------------------------------------------------------------------------------------


 writing wavefunctions
     LOOP+:  cpu time   66.6078: real time   17.4486
    4ORBIT:  cpu time    0.0000: real time    0.0000

 total amount of memory used by VASP on root node   108324. kBytes
========================================================================

   base      :      30000. kBytes
   nonl-proj :      32095. kBytes
   fftplans  :       5804. kBytes
   grid      :      10312. kBytes
   one-center:         32. kBytes
   wavefun   :      30081. kBytes
 
  
  
 General timing and accounting informations for this job:
 ========================================================
  
                  Total CPU time used (sec):       67.505
                            User time (sec):       65.700
                          System time (sec):        1.805
                         Elapsed time (sec):       18.078
  
                   Maximum memory used (kb):   119422976.
                   Average memory used (kb):           0.
  
                          Minor page faults:        52996
                          Major page faults:            0
                 Voluntary context switches:           12
