<?xml version="1.0" encoding="ISO-8859-1"?>
<modeling>
 <generator>
  <i name="program" type="string">vasp </i>
  <i name="version" type="string">5.4.1  </i>
  <i name="subversion" type="string">24Jun15 (build Oct 13 2015 09:47:18) complex                          parallel </i>
  <i name="platform" type="string">IFC91_ompi </i>
  <i name="date" type="string">2016 02 08 </i>
  <i name="time" type="string">15:53:13 </i>
 </generator>
 <incar>
  <i type="string" name="SYSTEM"> Band structure</i>
  <i type="string" name="PREC">normal</i>
  <i type="int" name="NSW">     0</i>
  <i name="ENCUT">    500.00000000</i>
  <i type="int" name="ISMEAR">     0</i>
  <i name="SIGMA">      0.01000000</i>
  <v type="int" name="KPOINT_BSE">    -1     0     0     0</v>
  <i type="string" name="GGA"> PS</i>
 </incar>
 <kpoints>
  <varray name="kpointlist" >
   <v>       0.00000000       0.00000000       0.00000000 </v>
   <v>       0.06442700       0.03719700       0.00000000 </v>
   <v>       0.12885400       0.07439400       0.00000000 </v>
   <v>       0.06442700       0.11159100       0.00000000 </v>
   <v>       0.00000000       0.00000000       0.03909100 </v>
   <v>       0.06442700       0.03719700       0.03909100 </v>
   <v>       0.12885400       0.07439400       0.03909100 </v>
   <v>       0.06442700       0.11159100       0.03909100 </v>
   <v>       0.00000000       0.00000000       0.07818200 </v>
   <v>       0.06442700       0.03719700       0.07818200 </v>
   <v>       0.12885400       0.07439400       0.07818200 </v>
   <v>       0.06442700       0.11159100       0.07818200 </v>
   <v>       0.00000000       0.00000000       0.50000000 </v>
   <v>       0.00000000       0.03125000       0.50000000 </v>
   <v>       0.00000000       0.06250000       0.50000000 </v>
   <v>       0.00000000       0.09375000       0.50000000 </v>
   <v>       0.00000000       0.12500000       0.50000000 </v>
   <v>       0.00000000       0.15625000       0.50000000 </v>
   <v>       0.00000000       0.18750000       0.50000000 </v>
   <v>       0.00000000       0.21875000       0.50000000 </v>
   <v>       0.00000000       0.25000000       0.50000000 </v>
   <v>       0.00000000       0.28125000       0.50000000 </v>
   <v>       0.00000000       0.31250000       0.50000000 </v>
   <v>       0.00000000       0.34375000       0.50000000 </v>
   <v>       0.00000000       0.37500000       0.50000000 </v>
   <v>       0.00000000       0.40625000       0.50000000 </v>
   <v>       0.00000000       0.43750000       0.50000000 </v>
   <v>       0.00000000       0.46875000       0.50000000 </v>
   <v>       0.00000000       0.50000000       0.50000000 </v>
   <v>       0.00000000       0.50000000       0.43750000 </v>
   <v>       0.00000000       0.50000000       0.37500000 </v>
   <v>       0.00000000       0.50000000       0.31250000 </v>
   <v>       0.00000000       0.50000000       0.25000000 </v>
   <v>       0.00000000       0.50000000       0.18750000 </v>
   <v>       0.00000000       0.50000000       0.12500000 </v>
   <v>       0.00000000       0.50000000       0.06250000 </v>
   <v>       0.00000000       0.50000000       0.00000000 </v>
   <v>       0.00000000       0.46875000       0.00000000 </v>
   <v>       0.00000000       0.43750000       0.00000000 </v>
   <v>       0.00000000       0.40625000       0.00000000 </v>
   <v>       0.00000000       0.37500000       0.00000000 </v>
   <v>       0.00000000       0.34375000       0.00000000 </v>
   <v>       0.00000000       0.31250000       0.00000000 </v>
   <v>       0.00000000       0.28125000       0.00000000 </v>
   <v>       0.00000000       0.25000000       0.00000000 </v>
   <v>       0.00000000       0.21875000       0.00000000 </v>
   <v>       0.00000000       0.18750000       0.00000000 </v>
   <v>       0.00000000       0.15625000       0.00000000 </v>
   <v>       0.00000000       0.12500000       0.00000000 </v>
   <v>       0.00000000       0.09375000       0.00000000 </v>
   <v>       0.00000000       0.06250000       0.00000000 </v>
   <v>       0.00000000       0.03125000       0.00000000 </v>
   <v>       0.00000000       0.00000000       0.00000000 </v>
   <v>       0.00000000       0.00000000       0.06250000 </v>
   <v>       0.00000000       0.00000000       0.12500000 </v>
   <v>       0.00000000       0.00000000       0.18750000 </v>
   <v>       0.00000000       0.00000000       0.25000000 </v>
   <v>       0.00000000       0.00000000       0.31250000 </v>
   <v>       0.00000000       0.00000000       0.37500000 </v>
   <v>       0.00000000       0.00000000       0.43750000 </v>
   <v>       0.00000000       0.00000000       0.50000000 </v>
   <v>      -0.03030300       0.03030300       0.50000000 </v>
   <v>      -0.06060600       0.06060600       0.50000000 </v>
   <v>      -0.09090900       0.09090900       0.50000000 </v>
   <v>      -0.12121200       0.12121200       0.50000000 </v>
   <v>      -0.15151500       0.15151500       0.50000000 </v>
   <v>      -0.18181800       0.18181800       0.50000000 </v>
   <v>      -0.21212100       0.21212100       0.50000000 </v>
   <v>      -0.24242400       0.24242400       0.50000000 </v>
   <v>      -0.27272700       0.27272700       0.50000000 </v>
   <v>      -0.30303000       0.30303000       0.50000000 </v>
   <v>      -0.33333300       0.33333300       0.50000000 </v>
  </varray>
  <varray name="weights" >
   <v>       0.01562500 </v>
   <v>       0.09375000 </v>
   <v>       0.04687500 </v>
   <v>       0.09375000 </v>
   <v>       0.03125000 </v>
   <v>       0.18750000 </v>
   <v>       0.09375000 </v>
   <v>       0.18750000 </v>
   <v>       0.01562500 </v>
   <v>       0.09375000 </v>
   <v>       0.04687500 </v>
   <v>       0.09375000 </v>
   <v>       0.00000000 </v>
   <v>       0.00000000 </v>
   <v>       0.00000000 </v>
   <v>       0.00000000 </v>
   <v>       0.00000000 </v>
   <v>       0.00000000 </v>
   <v>       0.00000000 </v>
   <v>       0.00000000 </v>
   <v>       0.00000000 </v>
   <v>       0.00000000 </v>
   <v>       0.00000000 </v>
   <v>       0.00000000 </v>
   <v>       0.00000000 </v>
   <v>       0.00000000 </v>
   <v>       0.00000000 </v>
   <v>       0.00000000 </v>
   <v>       0.00000000 </v>
   <v>       0.00000000 </v>
   <v>       0.00000000 </v>
   <v>       0.00000000 </v>
   <v>       0.00000000 </v>
   <v>       0.00000000 </v>
   <v>       0.00000000 </v>
   <v>       0.00000000 </v>
   <v>       0.00000000 </v>
   <v>       0.00000000 </v>
   <v>       0.00000000 </v>
   <v>       0.00000000 </v>
   <v>       0.00000000 </v>
   <v>       0.00000000 </v>
   <v>       0.00000000 </v>
   <v>       0.00000000 </v>
   <v>       0.00000000 </v>
   <v>       0.00000000 </v>
   <v>       0.00000000 </v>
   <v>       0.00000000 </v>
   <v>       0.00000000 </v>
   <v>       0.00000000 </v>
   <v>       0.00000000 </v>
   <v>       0.00000000 </v>
   <v>       0.00000000 </v>
   <v>       0.00000000 </v>
   <v>       0.00000000 </v>
   <v>       0.00000000 </v>
   <v>       0.00000000 </v>
   <v>       0.00000000 </v>
   <v>       0.00000000 </v>
   <v>       0.00000000 </v>
   <v>       0.00000000 </v>
   <v>       0.00000000 </v>
   <v>       0.00000000 </v>
   <v>       0.00000000 </v>
   <v>       0.00000000 </v>
   <v>       0.00000000 </v>
   <v>       0.00000000 </v>
   <v>       0.00000000 </v>
   <v>       0.00000000 </v>
   <v>       0.00000000 </v>
   <v>       0.00000000 </v>
   <v>       0.00000000 </v>
  </varray>
 </kpoints>
 <parameters>
  <separator name="general" >
   <i type="string" name="SYSTEM">Band structure</i>
   <i type="logical" name="LCOMPAT"> F  </i>
  </separator>
  <separator name="electronic" >
   <i type="string" name="PREC">normal</i>
   <i name="ENMAX">    500.00000000</i>
   <i name="ENAUG">    342.92400000</i>
   <i name="EDIFF">      0.00010000</i>
   <i type="int" name="IALGO">    38</i>
   <i type="int" name="IWAVPR">    10</i>
   <i type="int" name="NBANDS">    12</i>
   <i name="NELECT">     16.00000000</i>
   <i type="int" name="TURBO">     0</i>
   <i type="int" name="IRESTART">     0</i>
   <i type="int" name="NREBOOT">     0</i>
   <i type="int" name="NMIN">     0</i>
   <i name="EREF">      0.00000000</i>
   <separator name="electronic smearing" >
    <i type="int" name="ISMEAR">     0</i>
    <i name="SIGMA">      0.01000000</i>
    <i name="KSPACING">      0.50000000</i>
    <i type="logical" name="KGAMMA"> T  </i>
   </separator>
   <separator name="electronic projectors" >
    <i type="logical" name="LREAL"> F  </i>
    <v name="ROPT">      0.00000000      0.00000000</v>
    <i type="int" name="LMAXPAW">  -100</i>
    <i type="int" name="LMAXMIX">     2</i>
    <i type="logical" name="NLSPLINE"> F  </i>
   </separator>
   <separator name="electronic startup" >
    <i type="int" name="ISTART">     1</i>
    <i type="int" name="ICHARG">     0</i>
    <i type="int" name="INIWAV">     1</i>
   </separator>
   <separator name="electronic spin" >
    <i type="int" name="ISPIN">     1</i>
    <i type="logical" name="LNONCOLLINEAR"> F  </i>
    <v name="MAGMOM">      1.00000000      1.00000000      1.00000000      1.00000000</v>
    <i name="NUPDOWN">     -1.00000000</i>
    <i type="logical" name="LSORBIT"> F  </i>
    <v name="SAXIS">      0.00000000      0.00000000      1.00000000</v>
    <i type="logical" name="LSPIRAL"> F  </i>
    <v name="QSPIRAL">      0.00000000      0.00000000      0.00000000</v>
    <i type="logical" name="LZEROZ"> F  </i>
   </separator>
   <separator name="electronic exchange-correlation" >
    <i type="logical" name="LASPH"> F  </i>
    <i type="logical" name="LMETAGGA"> F  </i>
   </separator>
   <separator name="electronic convergence" >
    <i type="int" name="NELM">    60</i>
    <i type="int" name="NELMDL">     0</i>
    <i type="int" name="NELMIN">     2</i>
    <i name="ENINI">    500.00000000</i>
    <separator name="electronic convergence detail" >
     <i type="logical" name="LDIAG"> T  </i>
     <i type="logical" name="LSUBROT"> F  </i>
     <i name="WEIMIN">      0.00000000</i>
     <i name="EBREAK">      0.00000208</i>
     <i name="DEPER">      0.30000000</i>
     <i type="int" name="NRMM">     4</i>
     <i name="TIME">      0.40000000</i>
    </separator>
   </separator>
   <separator name="electronic mixer" >
    <i name="AMIX">      0.40000000</i>
    <i name="BMIX">      1.00000000</i>
    <i name="AMIN">      0.10000000</i>
    <i name="AMIX_MAG">      1.60000000</i>
    <i name="BMIX_MAG">      1.00000000</i>
    <separator name="electronic mixer details" >
     <i type="int" name="IMIX">     4</i>
     <i type="logical" name="MIXFIRST"> F  </i>
     <i type="int" name="MAXMIX">   -45</i>
     <i name="WC">    100.00000000</i>
     <i type="int" name="INIMIX">     1</i>
     <i type="int" name="MIXPRE">     1</i>
     <i type="int" name="MREMOVE">     5</i>
    </separator>
   </separator>
   <separator name="electronic dipolcorrection" >
    <i type="logical" name="LDIPOL"> F  </i>
    <i type="logical" name="LMONO"> F  </i>
    <i type="int" name="IDIPOL">     0</i>
    <i name="EPSILON">      1.00000000</i>
    <v name="DIPOL">   -100.00000000   -100.00000000   -100.00000000</v>
    <i name="EFIELD">      0.00000000</i>
   </separator>
  </separator>
  <separator name="grids" >
   <i type="int" name="NGX">    24</i>
   <i type="int" name="NGY">    24</i>
   <i type="int" name="NGZ">    36</i>
   <i type="int" name="NGXF">    48</i>
   <i type="int" name="NGYF">    48</i>
   <i type="int" name="NGZF">    72</i>
   <i type="logical" name="ADDGRID"> F  </i>
  </separator>
  <separator name="ionic" >
   <i type="int" name="NSW">     0</i>
   <i type="int" name="IBRION">    -1</i>
   <i type="int" name="ISIF">     2</i>
   <i name="PSTRESS">      0.00000000</i>
   <i name="EDIFFG">      0.00100000</i>
   <i type="int" name="NFREE">     0</i>
   <i name="POTIM">      0.50000000</i>
   <i name="SMASS">     -3.00000000</i>
   <i name="SCALEE">      1.00000000</i>
  </separator>
  <separator name="ionic md" >
   <i name="TEBEG">      0.00010000</i>
   <i name="TEEND">      0.00010000</i>
   <i type="int" name="NBLOCK">     1</i>
   <i type="int" name="KBLOCK">     1</i>
   <i type="int" name="NPACO">   256</i>
   <i name="APACO">     16.00000000</i>
  </separator>
  <separator name="symmetry" >
   <i type="int" name="ISYM">     2</i>
   <i name="SYMPREC">      0.00001000</i>
  </separator>
  <separator name="dos" >
   <i type="logical" name="LORBIT"> F  </i>
   <v name="RWIGS">     -1.00000000     -1.00000000</v>
   <i type="int" name="NEDOS">   301</i>
   <i name="EMIN">     10.00000000</i>
   <i name="EMAX">    -10.00000000</i>
   <i name="EFERMI">      0.00000000</i>
  </separator>
  <separator name="writing" >
   <i type="int" name="NWRITE">     2</i>
   <i type="logical" name="LWAVE"> T  </i>
   <i type="logical" name="LCHARG"> T  </i>
   <i type="logical" name="LPARD"> F  </i>
   <i type="logical" name="LVTOT"> F  </i>
   <i type="logical" name="LVHAR"> F  </i>
   <i type="logical" name="LELF"> F  </i>
   <i type="logical" name="LOPTICS"> F  </i>
   <v name="STM">      0.00000000      0.00000000      0.00000000      0.00000000      0.00000000      0.00000000      0.00000000</v>
  </separator>
  <separator name="performance" >
   <i type="int" name="NPAR">     1</i>
   <i type="int" name="NSIM">     4</i>
   <i type="int" name="NBLK">    -1</i>
   <i type="logical" name="LPLANE"> T  </i>
   <i type="logical" name="LSCALAPACK"> F  </i>
   <i type="logical" name="LSCAAWARE"> F  </i>
   <i type="logical" name="LSCALU"> F  </i>
   <i type="logical" name="LASYNC"> F  </i>
   <i type="logical" name="LORBITALREAL"> F  </i>
  </separator>
  <separator name="miscellaneous" >
   <i type="int" name="IDIOT">     3</i>
   <i type="logical" name="LMUSIC"> F  </i>
   <v name="POMASS">     69.72300000     30.97400000</v>
   <v name="DARWINR">      0.00000000      0.00000000</v>
   <v name="DARWINV">      1.00000000      1.00000000</v>
   <i type="logical" name="LCORR"> T  </i>
  </separator>
  <i type="logical" name="GGA_COMPAT"> T  </i>
  <i type="logical" name="LBERRY"> F  </i>
  <i type="int" name="ICORELEVEL">     0</i>
  <i type="logical" name="LDAU"> F  </i>
  <i type="int" name="I_CONSTRAINED_M">     0</i>
  <separator name="electronic exchange-correlation" >
   <i type="string" name="GGA">PS</i>
   <i type="int" name="VOSKOWN">     0</i>
   <i type="logical" name="LHFCALC"> F  </i>
   <i type="string" name="PRECFOCK"></i>
   <i type="logical" name="LSYMGRAD"> F  </i>
   <i type="logical" name="LHFONE"> F  </i>
   <i type="logical" name="LRHFCALC"> F  </i>
   <i type="logical" name="LTHOMAS"> F  </i>
   <i type="logical" name="LMODELHF"> F  </i>
   <i name="ENCUT4O">     -1.00000000</i>
   <i type="int" name="EXXOEP">     0</i>
   <i type="int" name="FOURORBIT">     0</i>
   <i name="AEXX">      0.00000000</i>
   <i name="HFALPHA">      0.00000000</i>
   <i name="MCALPHA">      0.00000000</i>
   <i name="ALDAX">      1.00000000</i>
   <i name="AGGAX">      1.00000000</i>
   <i name="ALDAC">      1.00000000</i>
   <i name="AGGAC">      1.00000000</i>
   <i type="int" name="NKREDX">     1</i>
   <i type="int" name="NKREDY">     1</i>
   <i type="int" name="NKREDZ">     1</i>
   <i type="logical" name="SHIFTRED"> F  </i>
   <i type="logical" name="ODDONLY"> F  </i>
   <i type="logical" name="EVENONLY"> F  </i>
   <i type="int" name="LMAXFOCK">     0</i>
   <i type="int" name="NMAXFOCKAE">     0</i>
   <i type="logical" name="LFOCKAEDFT"> F  </i>
   <i name="HFSCREEN">      0.00000000</i>
   <i name="HFSCREENC">      0.00000000</i>
   <i type="int" name="NBANDSGWLOW">     0</i>
  </separator>
  <separator name="vdW DFT" >
   <i type="logical" name="LUSE_VDW"> F  </i>
   <i name="Zab_VDW">     -0.84910000</i>
   <i name="PARAM1">      0.12340000</i>
   <i name="PARAM2">      1.00000000</i>
   <i name="PARAM3">      0.00000000</i>
  </separator>
  <separator name="model GW" >
   <i type="int" name="MODEL_GW">     0</i>
   <i name="MODEL_EPS0">     12.50922088</i>
   <i name="MODEL_ALPHA">      1.00000000</i>
  </separator>
  <separator name="linear response parameters" >
   <i type="logical" name="LEPSILON"> F  </i>
   <i type="logical" name="LRPA"> F  </i>
   <i type="logical" name="LNABLA"> F  </i>
   <i type="logical" name="LVEL"> F  </i>
   <i type="int" name="KINTER">     0</i>
   <i name="CSHIFT">      0.10000000</i>
   <i name="OMEGAMAX">     -1.00000000</i>
   <i name="DEG_THRESHOLD">      0.00200000</i>
  </separator>
  <separator name="orbital magnetization" >
   <i type="logical" name="NUCIND"> F  </i>
   <v name="MAGPOS">      0.00000000      0.00000000      0.00000000</v>
   <i type="logical" name="LNICSALL"> T  </i>
   <i type="logical" name="ORBITALMAG"> F  </i>
   <i type="logical" name="LMAGBLOCH"> F  </i>
   <i type="logical" name="LCHIMAG"> F  </i>
   <i type="logical" name="LGAUGE"> T  </i>
   <i type="int" name="MAGATOM">     0</i>
   <v name="MAGDIPOL">      0.00000000      0.00000000      0.00000000</v>
   <v name="AVECCONST">      0.00000000      0.00000000      0.00000000</v>
  </separator>
  <separator name="response functions" >
   <i type="logical" name="LADDER"> F  </i>
   <i type="logical" name="LFXC"> F  </i>
   <i type="logical" name="LHARTREE"> T  </i>
   <i type="int" name="IBSE">     0</i>
   <v type="int" name="KPOINT">    -1     0     0     0</v>
   <i type="logical" name="LTCTE"> F  </i>
   <i type="logical" name="LTETE"> F  </i>
   <i type="logical" name="LTRIPLET"> F  </i>
   <i type="logical" name="LFXCEPS"> F  </i>
   <i type="logical" name="LFXHEG"> F  </i>
   <i type="int" name="NATURALO">     0</i>
   <i type="logical" name="L2ORDER"> F  </i>
   <i type="logical" name="LUSEW"> F  </i>
   <i name="ENCUTGW">     -2.00000000</i>
   <i name="ENCUTGWSOFT">     -2.00000000</i>
   <i name="ENCUTLF">     -1.00000000</i>
   <i type="int" name="LMAXMP2">    -1</i>
   <i name="SCISSOR">      0.00000000</i>
   <i type="int" name="NOMEGA">     0</i>
   <i type="int" name="NOMEGAR">     0</i>
   <i type="int" name="NBANDSGW">    -1</i>
   <i type="int" name="NBANDSO">    -1</i>
   <i type="int" name="NBANDSV">    -1</i>
   <i type="int" name="NELM">     1</i>
   <i type="int" name="NELMHF">     1</i>
   <i type="int" name="DIM">     3</i>
   <i type="int" name="ANTIRES">     0</i>
   <i name="OMEGAMAX">    -30.00000000</i>
   <i name="OMEGAMIN">    -30.00000000</i>
   <i name="OMEGATL">   -200.00000000</i>
   <i type="int" name="OMEGAGRID">     0</i>
   <i name="CSHIFT">     -0.10000000</i>
   <i type="logical" name="SELFENERGY"> F  </i>
   <i type="logical" name="LSPECTRAL"> F  </i>
   <i type="logical" name="LSPECTRALGW"> F  </i>
   <i type="logical" name="LSINGLES"> F  </i>
   <i type="logical" name="LFERMIGW"> F  </i>
   <i type="logical" name="ODDONLYGW"> F  </i>
   <i type="logical" name="EVENONLYGW"> F  </i>
   <i type="int" name="NKREDLFX">     1</i>
   <i type="int" name="NKREDLFY">     1</i>
   <i type="int" name="NKREDLFZ">     1</i>
   <i type="int" name="MAXMEM">  1800</i>
   <i type="int" name="TELESCOPE">     0</i>
   <i type="int" name="TAUPAR">     1</i>
   <i type="int" name="OMEGAPAR">    -1</i>
   <i name="LAMBDA">      1.00000000</i>
  </separator>
  <separator name="External order field" >
   <i name="OFIELD_KAPPA">      0.00000000</i>
   <v name="OFIELD_K">      0.00000000      0.00000000      0.00000000</v>
   <i name="OFIELD_Q6_NEAR">      0.00000000</i>
   <i name="OFIELD_Q6_FAR">      0.00000000</i>
   <i name="OFIELD_A">      0.00000000</i>
  </separator>
 </parameters>
 <atominfo>
  <atoms>       4 </atoms>
  <types>       2 </types>
  <array name="atoms" >
   <dimension dim="1">ion</dimension>
   <field type="string">element</field>
   <field type="int">atomtype</field>
   <set>
    <rc><c>Ga</c><c>   1</c></rc>
    <rc><c>Ga</c><c>   1</c></rc>
    <rc><c>P </c><c>   2</c></rc>
    <rc><c>P </c><c>   2</c></rc>
   </set>
  </array>
  <array name="atomtypes" >
   <dimension dim="1">type</dimension>
   <field type="int">atomspertype</field>
   <field type="string">element</field>
   <field>mass</field>
   <field>valence</field>
   <field type="string">pseudopotential</field>
   <set>
    <rc><c>   2</c><c>Ga</c><c>     69.72300000</c><c>      3.00000000</c><c>  PAW_PBE Ga 08Apr2002                  </c></rc>
    <rc><c>   2</c><c>P </c><c>     30.97400000</c><c>      5.00000000</c><c>  PAW_PBE P 06Sep2000                   </c></rc>
   </set>
  </array>
 </atominfo>
 <structure name="initialpos" >
  <crystal>
   <varray name="basis" >
    <v>       3.88035670       0.00000000       0.00000000 </v>
    <v>      -1.94017835       3.36048748       0.00000000 </v>
    <v>       0.00000000       0.00000000       6.39536110 </v>
   </varray>
   <i name="volume">     83.39480590 </i>
   <varray name="rec_basis" >
    <v>       0.25770827       0.14878794      -0.00000000 </v>
    <v>       0.00000000       0.29757587      -0.00000000 </v>
    <v>       0.00000000       0.00000000       0.15636334 </v>
   </varray>
  </crystal>
  <varray name="positions" >
   <v>       0.66666700       0.33333300       0.49993900 </v>
   <v>       0.33333300       0.66666700       0.99993900 </v>
   <v>       0.66666700       0.33333300       0.87406100 </v>
   <v>       0.33333300       0.66666700       0.37406100 </v>
  </varray>
 </structure>
 <calculation>
  <scstep>
   <time name="dav">    9.25    2.39</time>
   <time name="total">    9.68    2.50</time>
   <energy>
    <i name="alphaZ">     30.51017296 </i>
    <i name="ewald">   -470.14872509 </i>
    <i name="hartreedc">    -48.99216721 </i>
    <i name="XCdc">    -29.30043176 </i>
    <i name="pawpsdc">   3183.49318758 </i>
    <i name="pawaedc">  -3121.27782700 </i>
    <i name="eentropy">     -0.00000000 </i>
    <i name="bandstr">    -18.63044989 </i>
    <i name="atom">    468.27725597 </i>
    <i name="e_fr_energy">     -6.06898443 </i>
    <i name="e_wo_entrp">     -6.06898443 </i>
    <i name="e_0_energy">     -6.06898443 </i>
   </energy>
  </scstep>
  <scstep>
   <time name="dav">    7.33    1.88</time>
   <time name="total">    7.74    1.99</time>
   <energy>
    <i name="e_fr_energy">     -7.27225038 </i>
    <i name="e_wo_entrp">     -7.27225038 </i>
    <i name="e_0_energy">     -7.27225038 </i>
   </energy>
  </scstep>
  <scstep>
   <time name="dav">    6.93    1.76</time>
   <time name="total">    7.38    1.87</time>
   <energy>
    <i name="e_fr_energy">     -7.41931101 </i>
    <i name="e_wo_entrp">     -7.41931101 </i>
    <i name="e_0_energy">     -7.41931101 </i>
   </energy>
  </scstep>
  <scstep>
   <time name="dav">    6.89    1.74</time>
   <time name="total">    7.30    1.85</time>
   <energy>
    <i name="e_fr_energy">     -7.25059422 </i>
    <i name="e_wo_entrp">     -7.25059422 </i>
    <i name="e_0_energy">     -7.25059422 </i>
   </energy>
  </scstep>
  <scstep>
   <time name="dav">    7.07    1.79</time>
   <time name="total">    7.48    1.90</time>
   <energy>
    <i name="e_fr_energy">     -7.25260298 </i>
    <i name="e_wo_entrp">     -7.25260298 </i>
    <i name="e_0_energy">     -7.25260298 </i>
   </energy>
  </scstep>
  <scstep>
   <time name="dav">    7.15    1.82</time>
   <time name="total">    7.58    1.93</time>
   <energy>
    <i name="e_fr_energy">     -7.25246441 </i>
    <i name="e_wo_entrp">     -7.25246441 </i>
    <i name="e_0_energy">     -7.25246441 </i>
   </energy>
  </scstep>
  <scstep>
   <time name="dav">    7.18    1.82</time>
   <time name="total">    7.60    1.93</time>
   <energy>
    <i name="e_fr_energy">     -7.25226589 </i>
    <i name="e_wo_entrp">     -7.25226589 </i>
    <i name="e_0_energy">     -7.25226589 </i>
   </energy>
  </scstep>
  <scstep>
   <time name="dav">    5.09    1.29</time>
   <time name="total">    5.37    1.37</time>
   <energy>
    <i name="alphaZ">     30.51017296 </i>
    <i name="ewald">   -470.14872509 </i>
    <i name="hartreedc">    -55.79500928 </i>
    <i name="XCdc">    -28.46999500 </i>
    <i name="pawpsdc">   1672.97115256 </i>
    <i name="pawaedc">  -1610.96774053 </i>
    <i name="eentropy">     -0.00000000 </i>
    <i name="bandstr">    -13.62932875 </i>
    <i name="atom">    468.27725597 </i>
    <i name="e_fr_energy">     -7.25221716 </i>
    <i name="e_wo_entrp">     -7.25221716 </i>
    <i name="e_0_energy">     -7.25221716 </i>
   </energy>
  </scstep>
  <structure>
   <crystal>
    <varray name="basis" >
     <v>       3.88035670       0.00000000       0.00000000 </v>
     <v>      -1.94017835       3.36048748       0.00000000 </v>
     <v>       0.00000000       0.00000000       6.39536110 </v>
    </varray>
    <i name="volume">     83.39480590 </i>
    <varray name="rec_basis" >
     <v>       0.25770827       0.14878794      -0.00000000 </v>
     <v>       0.00000000       0.29757587      -0.00000000 </v>
     <v>       0.00000000       0.00000000       0.15636334 </v>
    </varray>
   </crystal>
   <varray name="positions" >
    <v>       0.66666700       0.33333300       0.49993900 </v>
    <v>       0.33333300       0.66666700       0.99993900 </v>
    <v>       0.66666700       0.33333300       0.87406100 </v>
    <v>       0.33333300       0.66666700       0.37406100 </v>
   </varray>
  </structure>
  <varray name="forces" >
   <v>       0.00000000       0.00000000       0.82863971 </v>
   <v>       0.00000000       0.00000000       0.82863971 </v>
   <v>      -0.00000000      -0.00000000      -0.82863971 </v>
   <v>      -0.00000000      -0.00000000      -0.82863971 </v>
  </varray>
  <varray name="stress" >
   <v>     306.01280874       0.00000000       0.00000000 </v>
   <v>       0.00000000     306.01280874       0.00000000 </v>
   <v>       0.00000000       0.00000000      61.73867012 </v>
  </varray>
  <energy>
   <i name="e_fr_energy">     -7.25221716 </i>
   <i name="e_wo_entrp">     -7.25221716 </i>
   <i name="e_0_energy">     -0.00000000 </i>
  </energy>
  <time name="totalsc">   66.61   17.45</time>
  <eigenvalues>
   <array>
    <dimension dim="1">band</dimension>
    <dimension dim="2">kpoint</dimension>
    <dimension dim="3">spin</dimension>
    <field>eigene</field>
    <field>occ</field>
    <set>
     <set comment="spin 1">
      <set comment="kpoint 1">
       <r>   -8.8805    1.0000 </r>
       <r>   -6.9336    1.0000 </r>
       <r>   -3.2164    1.0000 </r>
       <r>    2.3427    1.0000 </r>
       <r>    2.3427    1.0000 </r>
       <r>    3.4954    1.0000 </r>
       <r>    3.6358    1.0000 </r>
       <r>    3.6359    1.0000 </r>
       <r>    4.5443    0.0000 </r>
       <r>    5.0690    0.0000 </r>
       <r>    6.8461    0.0000 </r>
       <r>    6.8461    0.0000 </r>
      </set>
      <set comment="kpoint 2">
       <r>   -8.7945    1.0000 </r>
       <r>   -6.8566    1.0000 </r>
       <r>   -3.1669    1.0000 </r>
       <r>    1.5725    1.0000 </r>
       <r>    2.1404    1.0000 </r>
       <r>    2.7897    1.0000 </r>
       <r>    3.3837    1.0000 </r>
       <r>    3.5014    1.0000 </r>
       <r>    5.2050    0.0000 </r>
       <r>    5.6394    0.0000 </r>
       <r>    6.7171    0.0000 </r>
       <r>    7.0870    0.0000 </r>
      </set>
      <set comment="kpoint 3">
       <r>   -8.5402    1.0000 </r>
       <r>   -6.6351    1.0000 </r>
       <r>   -3.0515    1.0000 </r>
       <r>    0.3953    1.0000 </r>
       <r>    1.3564    1.0000 </r>
       <r>    1.7219    1.0000 </r>
       <r>    3.0503    1.0000 </r>
       <r>    3.0986    1.0000 </r>
       <r>    5.7981    0.0000 </r>
       <r>    6.2209    0.0000 </r>
       <r>    6.8232    0.0000 </r>
       <r>    7.6796    0.0000 </r>
      </set>
      <set comment="kpoint 4">
       <r>   -8.6243    1.0000 </r>
       <r>   -6.7072    1.0000 </r>
       <r>   -3.0839    1.0000 </r>
       <r>    0.6980    1.0000 </r>
       <r>    1.6570    1.0000 </r>
       <r>    1.9470    1.0000 </r>
       <r>    3.1599    1.0000 </r>
       <r>    3.2294    1.0000 </r>
       <r>    5.7083    0.0000 </r>
       <r>    6.0845    0.0000 </r>
       <r>    6.7376    0.0000 </r>
       <r>    7.5351    0.0000 </r>
      </set>
      <set comment="kpoint 5">
       <r>   -8.8759    1.0000 </r>
       <r>   -6.9479    1.0000 </r>
       <r>   -3.1927    1.0000 </r>
       <r>    2.3464    1.0000 </r>
       <r>    2.3464    1.0000 </r>
       <r>    3.4124    1.0000 </r>
       <r>    3.6290    1.0000 </r>
       <r>    3.6291    1.0000 </r>
       <r>    4.5492    0.0000 </r>
       <r>    5.1405    0.0000 </r>
       <r>    6.8519    0.0000 </r>
       <r>    6.8520    0.0000 </r>
      </set>
      <set comment="kpoint 6">
       <r>   -8.7899    1.0000 </r>
       <r>   -6.8708    1.0000 </r>
       <r>   -3.1436    1.0000 </r>
       <r>    1.5770    1.0000 </r>
       <r>    2.1439    1.0000 </r>
       <r>    2.7508    1.0000 </r>
       <r>    3.3674    1.0000 </r>
       <r>    3.4942    1.0000 </r>
       <r>    5.2093    0.0000 </r>
       <r>    5.6718    0.0000 </r>
       <r>    6.7289    0.0000 </r>
       <r>    7.0939    0.0000 </r>
      </set>
      <set comment="kpoint 7">
       <r>   -8.5356    1.0000 </r>
       <r>   -6.6490    1.0000 </r>
       <r>   -3.0299    1.0000 </r>
       <r>    0.4013    1.0000 </r>
       <r>    1.3421    1.0000 </r>
       <r>    1.7180    1.0000 </r>
       <r>    3.0425    1.0000 </r>
       <r>    3.0910    1.0000 </r>
       <r>    5.7909    0.0000 </r>
       <r>    6.2109    0.0000 </r>
       <r>    6.8591    0.0000 </r>
       <r>    7.6937    0.0000 </r>
      </set>
      <set comment="kpoint 8">
       <r>   -8.6197    1.0000 </r>
       <r>   -6.7212    1.0000 </r>
       <r>   -3.0616    1.0000 </r>
       <r>    0.7034    1.0000 </r>
       <r>    1.6485    1.0000 </r>
       <r>    1.9349    1.0000 </r>
       <r>    3.1489    1.0000 </r>
       <r>    3.2217    1.0000 </r>
       <r>    5.7062    0.0000 </r>
       <r>    6.0817    0.0000 </r>
       <r>    6.7696    0.0000 </r>
       <r>    7.5442    0.0000 </r>
      </set>
      <set comment="kpoint 9">
       <r>   -8.8621    1.0000 </r>
       <r>   -6.9897    1.0000 </r>
       <r>   -3.1227    1.0000 </r>
       <r>    2.3575    1.0000 </r>
       <r>    2.3576    1.0000 </r>
       <r>    3.1991    1.0000 </r>
       <r>    3.6089    1.0000 </r>
       <r>    3.6090    1.0000 </r>
       <r>    4.5641    0.0000 </r>
       <r>    5.3162    0.0000 </r>
       <r>    6.8693    0.0000 </r>
       <r>    7.2338    0.0000 </r>
      </set>
      <set comment="kpoint 10">
       <r>   -8.7761    1.0000 </r>
       <r>   -6.9123    1.0000 </r>
       <r>   -3.0748    1.0000 </r>
       <r>    1.5902    1.0000 </r>
       <r>    2.1540    1.0000 </r>
       <r>    2.6379    1.0000 </r>
       <r>    3.3229    1.0000 </r>
       <r>    3.4727    1.0000 </r>
       <r>    5.2223    0.0000 </r>
       <r>    5.7610    0.0000 </r>
       <r>    6.7625    0.0000 </r>
       <r>    7.1145    0.0000 </r>
      </set>
      <set comment="kpoint 11">
       <r>   -8.5221    1.0000 </r>
       <r>   -6.6894    1.0000 </r>
       <r>   -2.9662    1.0000 </r>
       <r>    0.4190    1.0000 </r>
       <r>    1.2965    1.0000 </r>
       <r>    1.7112    1.0000 </r>
       <r>    3.0164    1.0000 </r>
       <r>    3.0683    1.0000 </r>
       <r>    5.7719    0.0000 </r>
       <r>    6.1959    0.0000 </r>
       <r>    6.9509    0.0000 </r>
       <r>    7.7333    0.0000 </r>
      </set>
      <set comment="kpoint 12">
       <r>   -8.6061    1.0000 </r>
       <r>   -6.7620    1.0000 </r>
       <r>   -2.9959    1.0000 </r>
       <r>    0.7195    1.0000 </r>
       <r>    1.6160    1.0000 </r>
       <r>    1.9079    1.0000 </r>
       <r>    3.1139    1.0000 </r>
       <r>    3.1986    1.0000 </r>
       <r>    5.7023    0.0000 </r>
       <r>    6.0815    0.0000 </r>
       <r>    6.8551    0.0000 </r>
       <r>    7.5713    0.0000 </r>
      </set>
      <set comment="kpoint 13">
       <r>   -8.1583    1.0000 </r>
       <r>   -8.1583    1.0000 </r>
       <r>   -0.4960    1.0000 </r>
       <r>   -0.4960    1.0000 </r>
       <r>    2.8952    1.0000 </r>
       <r>    2.8952    1.0000 </r>
       <r>    2.8952    1.0000 </r>
       <r>    2.8952    1.0000 </r>
       <r>    5.3177    0.0000 </r>
       <r>    5.3177    0.0000 </r>
       <r>    7.6427    0.0000 </r>
       <r>    7.6427    0.0000 </r>
      </set>
      <set comment="kpoint 14">
       <r>   -8.1480    1.0000 </r>
       <r>   -8.1480    1.0000 </r>
       <r>   -0.4980    1.0000 </r>
       <r>   -0.4980    1.0000 </r>
       <r>    2.7928    1.0000 </r>
       <r>    2.7928    1.0000 </r>
       <r>    2.8738    1.0000 </r>
       <r>    2.8738    1.0000 </r>
       <r>    5.4152    0.0000 </r>
       <r>    5.4152    0.0000 </r>
       <r>    7.6126    0.0000 </r>
       <r>    7.6126    0.0000 </r>
      </set>
      <set comment="kpoint 15">
       <r>   -8.1172    1.0000 </r>
       <r>   -8.1172    1.0000 </r>
       <r>   -0.5058    1.0000 </r>
       <r>   -0.5058    1.0000 </r>
       <r>    2.5328    1.0000 </r>
       <r>    2.5328    1.0000 </r>
       <r>    2.8120    1.0000 </r>
       <r>    2.8120    1.0000 </r>
       <r>    5.6526    0.0000 </r>
       <r>    5.6526    0.0000 </r>
       <r>    7.5239    0.0000 </r>
       <r>    7.5239    0.0000 </r>
      </set>
      <set comment="kpoint 16">
       <r>   -8.0660    1.0000 </r>
       <r>   -8.0660    1.0000 </r>
       <r>   -0.5257    1.0000 </r>
       <r>   -0.5257    1.0000 </r>
       <r>    2.1978    1.0000 </r>
       <r>    2.1978    1.0000 </r>
       <r>    2.7167    1.0000 </r>
       <r>    2.7167    1.0000 </r>
       <r>    5.9162    0.0000 </r>
       <r>    5.9162    0.0000 </r>
       <r>    7.4566    0.0000 </r>
       <r>    7.4566    0.0000 </r>
      </set>
      <set comment="kpoint 17">
       <r>   -7.9949    1.0000 </r>
       <r>   -7.9949    1.0000 </r>
       <r>   -0.5695    1.0000 </r>
       <r>   -0.5695    1.0000 </r>
       <r>    1.8514    1.0000 </r>
       <r>    1.8514    1.0000 </r>
       <r>    2.5966    1.0000 </r>
       <r>    2.5966    1.0000 </r>
       <r>    6.0835    0.0000 </r>
       <r>    6.0835    0.0000 </r>
       <r>    7.4940    0.0000 </r>
       <r>    7.4940    0.0000 </r>
      </set>
      <set comment="kpoint 18">
       <r>   -7.9044    1.0000 </r>
       <r>   -7.9044    1.0000 </r>
       <r>   -0.6550    1.0000 </r>
       <r>   -0.6550    1.0000 </r>
       <r>    1.5390    1.0000 </r>
       <r>    1.5390    1.0000 </r>
       <r>    2.4609    1.0000 </r>
       <r>    2.4609    1.0000 </r>
       <r>    6.0884    0.0000 </r>
       <r>    6.0884    0.0000 </r>
       <r>    7.6641    0.0000 </r>
       <r>    7.6641    0.0000 </r>
      </set>
      <set comment="kpoint 19">
       <r>   -7.7955    1.0000 </r>
       <r>   -7.7955    1.0000 </r>
       <r>   -0.8022    1.0000 </r>
       <r>   -0.8021    1.0000 </r>
       <r>    1.2953    1.0000 </r>
       <r>    1.2953    1.0000 </r>
       <r>    2.3179    1.0000 </r>
       <r>    2.3179    1.0000 </r>
       <r>    5.9773    0.0000 </r>
       <r>    5.9773    0.0000 </r>
       <r>    7.8420    0.0000 </r>
       <r>    7.8420    0.0000 </r>
      </set>
      <set comment="kpoint 20">
       <r>   -7.6693    1.0000 </r>
       <r>   -7.6693    1.0000 </r>
       <r>   -1.0213    1.0000 </r>
       <r>   -1.0213    1.0000 </r>
       <r>    1.1394    1.0000 </r>
       <r>    1.1394    1.0000 </r>
       <r>    2.1743    1.0000 </r>
       <r>    2.1743    1.0000 </r>
       <r>    5.8178    0.0000 </r>
       <r>    5.8178    0.0000 </r>
       <r>    7.8602    0.0000 </r>
       <r>    7.8602    0.0000 </r>
      </set>
      <set comment="kpoint 21">
       <r>   -7.5275    1.0000 </r>
       <r>   -7.5275    1.0000 </r>
       <r>   -1.3034    1.0000 </r>
       <r>   -1.3034    1.0000 </r>
       <r>    1.0675    1.0000 </r>
       <r>    1.0675    1.0000 </r>
       <r>    2.0356    1.0000 </r>
       <r>    2.0356    1.0000 </r>
       <r>    5.6470    0.0000 </r>
       <r>    5.6470    0.0000 </r>
       <r>    7.7070    0.0000 </r>
       <r>    7.7070    0.0000 </r>
      </set>
      <set comment="kpoint 22">
       <r>   -7.3726    1.0000 </r>
       <r>   -7.3726    1.0000 </r>
       <r>   -1.6257    1.0000 </r>
       <r>   -1.6257    1.0000 </r>
       <r>    1.0602    1.0000 </r>
       <r>    1.0602    1.0000 </r>
       <r>    1.9060    1.0000 </r>
       <r>    1.9060    1.0000 </r>
       <r>    5.4821    0.0000 </r>
       <r>    5.4821    0.0000 </r>
       <r>    7.4705    0.0000 </r>
       <r>    7.4705    0.0000 </r>
      </set>
      <set comment="kpoint 23">
       <r>   -7.2080    1.0000 </r>
       <r>   -7.2080    1.0000 </r>
       <r>   -1.9635    1.0000 </r>
       <r>   -1.9635    1.0000 </r>
       <r>    1.0957    1.0000 </r>
       <r>    1.0957    1.0000 </r>
       <r>    1.7886    1.0000 </r>
       <r>    1.7886    1.0000 </r>
       <r>    5.3316    0.0000 </r>
       <r>    5.3316    0.0000 </r>
       <r>    7.2093    0.0000 </r>
       <r>    7.2093    0.0000 </r>
      </set>
      <set comment="kpoint 24">
       <r>   -7.0386    1.0000 </r>
       <r>   -7.0386    1.0000 </r>
       <r>   -2.2964    1.0000 </r>
       <r>   -2.2964    1.0000 </r>
       <r>    1.1557    1.0000 </r>
       <r>    1.1557    1.0000 </r>
       <r>    1.6860    1.0000 </r>
       <r>    1.6860    1.0000 </r>
       <r>    5.2000    0.0000 </r>
       <r>    5.2000    0.0000 </r>
       <r>    6.9534    0.0000 </r>
       <r>    6.9534    0.0000 </r>
      </set>
      <set comment="kpoint 25">
       <r>   -6.8716    1.0000 </r>
       <r>   -6.8716    1.0000 </r>
       <r>   -2.6067    1.0000 </r>
       <r>   -2.6067    1.0000 </r>
       <r>    1.2260    1.0000 </r>
       <r>    1.2260    1.0000 </r>
       <r>    1.5998    1.0000 </r>
       <r>    1.5998    1.0000 </r>
       <r>    5.0900    0.0000 </r>
       <r>    5.0900    0.0000 </r>
       <r>    6.7209    0.0000 </r>
       <r>    6.7209    0.0000 </r>
      </set>
      <set comment="kpoint 26">
       <r>   -6.7171    1.0000 </r>
       <r>   -6.7170    1.0000 </r>
       <r>   -2.8777    1.0000 </r>
       <r>   -2.8777    1.0000 </r>
       <r>    1.2949    1.0000 </r>
       <r>    1.2949    1.0000 </r>
       <r>    1.5316    1.0000 </r>
       <r>    1.5316    1.0000 </r>
       <r>    5.0031    0.0000 </r>
       <r>    5.0031    0.0000 </r>
       <r>    6.5249    0.0000 </r>
       <r>    6.5249    0.0000 </r>
      </set>
      <set comment="kpoint 27">
       <r>   -6.5885    1.0000 </r>
       <r>   -6.5885    1.0000 </r>
       <r>   -3.0919    1.0000 </r>
       <r>   -3.0919    1.0000 </r>
       <r>    1.3524    1.0000 </r>
       <r>    1.3524    1.0000 </r>
       <r>    1.4822    1.0000 </r>
       <r>    1.4822    1.0000 </r>
       <r>    4.9404    0.0000 </r>
       <r>    4.9404    0.0000 </r>
       <r>    6.3762    0.0000 </r>
       <r>    6.3762    0.0000 </r>
      </set>
      <set comment="kpoint 28">
       <r>   -6.5018    1.0000 </r>
       <r>   -6.5018    1.0000 </r>
       <r>   -3.2309    1.0000 </r>
       <r>   -3.2309    1.0000 </r>
       <r>    1.3906    1.0000 </r>
       <r>    1.3906    1.0000 </r>
       <r>    1.4523    1.0000 </r>
       <r>    1.4523    1.0000 </r>
       <r>    4.9024    0.0000 </r>
       <r>    4.9024    0.0000 </r>
       <r>    6.2832    0.0000 </r>
       <r>    6.2832    0.0000 </r>
      </set>
      <set comment="kpoint 29">
       <r>   -6.4710    1.0000 </r>
       <r>   -6.4710    1.0000 </r>
       <r>   -3.2793    1.0000 </r>
       <r>   -3.2793    1.0000 </r>
       <r>    1.4039    1.0000 </r>
       <r>    1.4040    1.0000 </r>
       <r>    1.4423    1.0000 </r>
       <r>    1.4423    1.0000 </r>
       <r>    4.8897    0.0000 </r>
       <r>    4.8897    0.0000 </r>
       <r>    6.2516    0.0000 </r>
       <r>    6.2516    0.0000 </r>
      </set>
      <set comment="kpoint 30">
       <r>   -6.5727    1.0000 </r>
       <r>   -6.3675    1.0000 </r>
       <r>   -3.3823    1.0000 </r>
       <r>   -3.1493    1.0000 </r>
       <r>    1.0867    1.0000 </r>
       <r>    1.3023    1.0000 </r>
       <r>    1.5918    1.0000 </r>
       <r>    1.6453    1.0000 </r>
       <r>    4.7455    0.0000 </r>
       <r>    5.0019    0.0000 </r>
       <r>    6.3399    0.0000 </r>
       <r>    6.3464    0.0000 </r>
      </set>
      <set comment="kpoint 31">
       <r>   -6.6684    1.0000 </r>
       <r>   -6.2672    1.0000 </r>
       <r>   -3.4546    1.0000 </r>
       <r>   -2.9977    1.0000 </r>
       <r>    0.7369    1.0000 </r>
       <r>    1.1754    1.0000 </r>
       <r>    1.7461    1.0000 </r>
       <r>    1.7623    1.0000 </r>
       <r>    4.6905    0.0000 </r>
       <r>    5.0097    0.0000 </r>
       <r>    6.5302    0.0000 </r>
       <r>    6.6591    0.0000 </r>
      </set>
      <set comment="kpoint 32">
       <r>   -6.7546    1.0000 </r>
       <r>   -6.1752    1.0000 </r>
       <r>   -3.4944    1.0000 </r>
       <r>   -2.8318    1.0000 </r>
       <r>    0.3856    1.0000 </r>
       <r>    1.0643    1.0000 </r>
       <r>    1.7347    1.0000 </r>
       <r>    1.8994    1.0000 </r>
       <r>    4.7872    0.0000 </r>
       <r>    4.9491    0.0000 </r>
       <r>    6.7668    0.0000 </r>
       <r>    7.1276    0.0000 </r>
      </set>
      <set comment="kpoint 33">
       <r>   -6.8283    1.0000 </r>
       <r>   -6.0960    1.0000 </r>
       <r>   -3.5034    1.0000 </r>
       <r>   -2.6610    1.0000 </r>
       <r>    0.0558    1.0000 </r>
       <r>    0.9709    1.0000 </r>
       <r>    1.5964    1.0000 </r>
       <r>    2.0444    1.0000 </r>
       <r>    4.8694    0.0000 </r>
       <r>    5.0200    0.0000 </r>
       <r>    7.0057    0.0000 </r>
       <r>    7.6838    0.0000 </r>
      </set>
      <set comment="kpoint 34">
       <r>   -6.8877    1.0000 </r>
       <r>   -6.0330    1.0000 </r>
       <r>   -3.4879    1.0000 </r>
       <r>   -2.4980    1.0000 </r>
       <r>   -0.2326    1.0000 </r>
       <r>    0.8969    1.0000 </r>
       <r>    1.4097    1.0000 </r>
       <r>    2.1722    1.0000 </r>
       <r>    4.7956    0.0000 </r>
       <r>    5.3353    0.0000 </r>
       <r>    7.1903    0.0000 </r>
       <r>    8.2856    0.0000 </r>
      </set>
      <set comment="kpoint 35">
       <r>   -6.9311    1.0000 </r>
       <r>   -5.9879    1.0000 </r>
       <r>   -3.4591    1.0000 </r>
       <r>   -2.3594    1.0000 </r>
       <r>   -0.4601    1.0000 </r>
       <r>    0.8433    1.0000 </r>
       <r>    1.2316    1.0000 </r>
       <r>    2.2734    1.0000 </r>
       <r>    4.7386    0.0000 </r>
       <r>    5.6768    0.0000 </r>
       <r>    7.2499    0.0000 </r>
       <r>    8.0853    0.0000 </r>
      </set>
      <set comment="kpoint 36">
       <r>   -6.9575    1.0000 </r>
       <r>   -5.9610    1.0000 </r>
       <r>   -3.4323    1.0000 </r>
       <r>   -2.2644    1.0000 </r>
       <r>   -0.6074    1.0000 </r>
       <r>    0.8108    1.0000 </r>
       <r>    1.1052    1.0000 </r>
       <r>    2.3386    1.0000 </r>
       <r>    4.7030    0.0000 </r>
       <r>    5.9778    0.0000 </r>
       <r>    7.1752    0.0000 </r>
       <r>    7.9526    0.0000 </r>
      </set>
      <set comment="kpoint 37">
       <r>   -6.9664    1.0000 </r>
       <r>   -5.9521    1.0000 </r>
       <r>   -3.4213    1.0000 </r>
       <r>   -2.2303    1.0000 </r>
       <r>   -0.6586    1.0000 </r>
       <r>    0.8000    1.0000 </r>
       <r>    1.0595    1.0000 </r>
       <r>    2.3613    1.0000 </r>
       <r>    4.6910    0.0000 </r>
       <r>    6.1146    0.0000 </r>
       <r>    7.1058    0.0000 </r>
       <r>    7.9075    0.0000 </r>
      </set>
      <set comment="kpoint 38">
       <r>   -7.0133    1.0000 </r>
       <r>   -5.9383    1.0000 </r>
       <r>   -3.4265    1.0000 </r>
       <r>   -2.1621    1.0000 </r>
       <r>   -0.6828    1.0000 </r>
       <r>    0.8103    1.0000 </r>
       <r>    1.1033    1.0000 </r>
       <r>    2.3708    1.0000 </r>
       <r>    4.7008    0.0000 </r>
       <r>    6.1224    0.0000 </r>
       <r>    7.1150    0.0000 </r>
       <r>    7.9111    0.0000 </r>
      </set>
      <set comment="kpoint 39">
       <r>   -7.1370    1.0000 </r>
       <r>   -5.9155    1.0000 </r>
       <r>   -3.4249    1.0000 </r>
       <r>   -1.9757    1.0000 </r>
       <r>   -0.7440    1.0000 </r>
       <r>    0.8410    1.0000 </r>
       <r>    1.2251    1.0000 </r>
       <r>    2.3992    1.0000 </r>
       <r>    4.7298    0.0000 </r>
       <r>    6.1454    0.0000 </r>
       <r>    7.1423    0.0000 </r>
       <r>    7.9209    0.0000 </r>
      </set>
      <set comment="kpoint 40">
       <r>   -7.3054    1.0000 </r>
       <r>   -5.9152    1.0000 </r>
       <r>   -3.3888    1.0000 </r>
       <r>   -1.7058    1.0000 </r>
       <r>   -0.8158    1.0000 </r>
       <r>    0.8919    1.0000 </r>
       <r>    1.4035    1.0000 </r>
       <r>    2.4461    1.0000 </r>
       <r>    4.7770    0.0000 </r>
       <r>    6.1815    0.0000 </r>
       <r>    7.1871    0.0000 </r>
       <r>    7.9348    0.0000 </r>
      </set>
      <set comment="kpoint 41">
       <r>   -7.4939    1.0000 </r>
       <r>   -5.9546    1.0000 </r>
       <r>   -3.3107    1.0000 </r>
       <r>   -1.3831    1.0000 </r>
       <r>   -0.8647    1.0000 </r>
       <r>    0.9622    1.0000 </r>
       <r>    1.6179    1.0000 </r>
       <r>    2.5107    1.0000 </r>
       <r>    4.8405    0.0000 </r>
       <r>    6.2273    0.0000 </r>
       <r>    7.2475    0.0000 </r>
       <r>    7.9488    0.0000 </r>
      </set>
      <set comment="kpoint 42">
       <r>   -7.6873    1.0000 </r>
       <r>   -6.0320    1.0000 </r>
       <r>   -3.2068    1.0000 </r>
       <r>   -1.0597    1.0000 </r>
       <r>   -0.8272    1.0000 </r>
       <r>    1.0512    1.0000 </r>
       <r>    1.8521    1.0000 </r>
       <r>    2.5918    1.0000 </r>
       <r>    4.9182    0.0000 </r>
       <r>    6.2767    0.0000 </r>
       <r>    7.3185    0.0000 </r>
       <r>    7.9567    0.0000 </r>
      </set>
      <set comment="kpoint 43">
       <r>   -7.8764    1.0000 </r>
       <r>   -6.1362    1.0000 </r>
       <r>   -3.1064    1.0000 </r>
       <r>   -0.8864    1.0000 </r>
       <r>   -0.5363    1.0000 </r>
       <r>    1.1575    1.0000 </r>
       <r>    2.0941    1.0000 </r>
       <r>    2.6880    1.0000 </r>
       <r>    5.0077    0.0000 </r>
       <r>    6.3208    0.0000 </r>
       <r>    7.3916    0.0000 </r>
       <r>    7.9501    0.0000 </r>
      </set>
      <set comment="kpoint 44">
       <r>   -8.0558    1.0000 </r>
       <r>   -6.2547    1.0000 </r>
       <r>   -3.0357    1.0000 </r>
       <r>   -0.7239    1.0000 </r>
       <r>   -0.1204    1.0000 </r>
       <r>    1.2795    1.0000 </r>
       <r>    2.3345    1.0000 </r>
       <r>    2.7971    1.0000 </r>
       <r>    5.1067    0.0000 </r>
       <r>    6.3475    0.0000 </r>
       <r>    7.4568    0.0000 </r>
       <r>    7.9232    0.0000 </r>
      </set>
      <set comment="kpoint 45">
       <r>   -8.2217    1.0000 </r>
       <r>   -6.3769    1.0000 </r>
       <r>   -3.0059    1.0000 </r>
       <r>   -0.4823    1.0000 </r>
       <r>    0.3278    1.0000 </r>
       <r>    1.4148    1.0000 </r>
       <r>    2.5653    1.0000 </r>
       <r>    2.9162    1.0000 </r>
       <r>    5.2120    0.0000 </r>
       <r>    6.3440    0.0000 </r>
       <r>    7.5129    0.0000 </r>
       <r>    7.8693    0.0000 </r>
      </set>
      <set comment="kpoint 46">
       <r>   -8.3717    1.0000 </r>
       <r>   -6.4953    1.0000 </r>
       <r>   -3.0118    1.0000 </r>
       <r>   -0.1648    1.0000 </r>
       <r>    0.7942    1.0000 </r>
       <r>    1.5604    1.0000 </r>
       <r>    2.7793    1.0000 </r>
       <r>    3.0419    1.0000 </r>
       <r>    5.3184    0.0000 </r>
       <r>    6.3013    0.0000 </r>
       <r>    7.5660    0.0000 </r>
       <r>    7.7494    0.0000 </r>
      </set>
      <set comment="kpoint 47">
       <r>   -8.5041    1.0000 </r>
       <r>   -6.6048    1.0000 </r>
       <r>   -3.0411    1.0000 </r>
       <r>    0.2111    1.0000 </r>
       <r>    1.2722    1.0000 </r>
       <r>    1.7123    1.0000 </r>
       <r>    2.9705    1.0000 </r>
       <r>    3.1694    1.0000 </r>
       <r>    5.4133    0.0000 </r>
       <r>    6.2161    0.0000 </r>
       <r>    7.4288    0.0000 </r>
       <r>    7.5976    0.0000 </r>
      </set>
      <set comment="kpoint 48">
       <r>   -8.6177    1.0000 </r>
       <r>   -6.7016    1.0000 </r>
       <r>   -3.0815    1.0000 </r>
       <r>    0.6266    1.0000 </r>
       <r>    1.7558    1.0000 </r>
       <r>    1.8650    1.0000 </r>
       <r>    3.1341    1.0000 </r>
       <r>    3.2932    1.0000 </r>
       <r>    5.4670    0.0000 </r>
       <r>    6.0857    0.0000 </r>
       <r>    7.0978    0.0000 </r>
       <r>    7.4235    0.0000 </r>
      </set>
      <set comment="kpoint 49">
       <r>   -8.7116    1.0000 </r>
       <r>   -6.7833    1.0000 </r>
       <r>   -3.1239    1.0000 </r>
       <r>    1.0629    1.0000 </r>
       <r>    2.0116    1.0000 </r>
       <r>    2.2375    1.0000 </r>
       <r>    3.2674    1.0000 </r>
       <r>    3.4066    1.0000 </r>
       <r>    5.4212    0.0000 </r>
       <r>    5.9042    0.0000 </r>
       <r>    6.8502    0.0000 </r>
       <r>    7.2466    0.0000 </r>
      </set>
      <set comment="kpoint 50">
       <r>   -8.7852    1.0000 </r>
       <r>   -6.8483    1.0000 </r>
       <r>   -3.1619    1.0000 </r>
       <r>    1.4991    1.0000 </r>
       <r>    2.1431    1.0000 </r>
       <r>    2.7058    1.0000 </r>
       <r>    3.3695    1.0000 </r>
       <r>    3.5028    1.0000 </r>
       <r>    5.2256    0.0000 </r>
       <r>    5.6773    0.0000 </r>
       <r>    6.7559    0.0000 </r>
       <r>    7.0850    0.0000 </r>
      </set>
      <set comment="kpoint 51">
       <r>   -8.8380    1.0000 </r>
       <r>   -6.8955    1.0000 </r>
       <r>   -3.1914    1.0000 </r>
       <r>    1.9034    1.0000 </r>
       <r>    2.2490    1.0000 </r>
       <r>    3.1389    1.0000 </r>
       <r>    3.4413    1.0000 </r>
       <r>    3.5756    1.0000 </r>
       <r>    4.9303    0.0000 </r>
       <r>    5.4228    0.0000 </r>
       <r>    6.7745    0.0000 </r>
       <r>    6.9566    0.0000 </r>
      </set>
      <set comment="kpoint 52">
       <r>   -8.8699    1.0000 </r>
       <r>   -6.9240    1.0000 </r>
       <r>   -3.2100    1.0000 </r>
       <r>    2.2170    1.0000 </r>
       <r>    2.3184    1.0000 </r>
       <r>    3.4703    1.0000 </r>
       <r>    3.4996    1.0000 </r>
       <r>    3.6207    1.0000 </r>
       <r>    4.6588    0.0000 </r>
       <r>    5.1819    0.0000 </r>
       <r>    6.8234    0.0000 </r>
       <r>    6.8744    0.0000 </r>
      </set>
      <set comment="kpoint 53">
       <r>   -8.8805    1.0000 </r>
       <r>   -6.9336    1.0000 </r>
       <r>   -3.2164    1.0000 </r>
       <r>    2.3427    1.0000 </r>
       <r>    2.3427    1.0000 </r>
       <r>    3.4954    1.0000 </r>
       <r>    3.6358    1.0000 </r>
       <r>    3.6359    1.0000 </r>
       <r>    4.5443    0.0000 </r>
       <r>    5.0690    0.0000 </r>
       <r>    6.8461    0.0000 </r>
       <r>    6.8464    0.0000 </r>
      </set>
      <set comment="kpoint 54">
       <r>   -8.8687    1.0000 </r>
       <r>   -6.9698    1.0000 </r>
       <r>   -3.1561    1.0000 </r>
       <r>    2.3522    1.0000 </r>
       <r>    2.3522    1.0000 </r>
       <r>    3.2963    1.0000 </r>
       <r>    3.6185    1.0000 </r>
       <r>    3.6186    1.0000 </r>
       <r>    4.5569    0.0000 </r>
       <r>    5.2376    0.0000 </r>
       <r>    6.8610    0.0000 </r>
       <r>    6.8610    0.0000 </r>
      </set>
      <set comment="kpoint 55">
       <r>   -8.8335    1.0000 </r>
       <r>   -7.0713    1.0000 </r>
       <r>   -2.9825    1.0000 </r>
       <r>    2.3806    1.0000 </r>
       <r>    2.3806    1.0000 </r>
       <r>    2.8511    1.0000 </r>
       <r>    3.5684    1.0000 </r>
       <r>    3.5684    1.0000 </r>
       <r>    4.5948    0.0000 </r>
       <r>    5.5713    0.0000 </r>
       <r>    6.9048    0.0000 </r>
       <r>    6.9049    0.0000 </r>
      </set>
      <set comment="kpoint 56">
       <r>   -8.7751    1.0000 </r>
       <r>   -7.2213    1.0000 </r>
       <r>   -2.7128    1.0000 </r>
       <r>    2.3171    1.0000 </r>
       <r>    2.4274    1.0000 </r>
       <r>    2.4274    1.0000 </r>
       <r>    3.4897    1.0000 </r>
       <r>    3.4897    1.0000 </r>
       <r>    4.6576    0.0000 </r>
       <r>    5.8439    0.0000 </r>
       <r>    6.9757    0.0000 </r>
       <r>    6.9759    0.0000 </r>
      </set>
      <set comment="kpoint 57">
       <r>   -8.6938    1.0000 </r>
       <r>   -7.4011    1.0000 </r>
       <r>   -2.3663    1.0000 </r>
       <r>    1.7520    1.0000 </r>
       <r>    2.4918    1.0000 </r>
       <r>    2.4918    1.0000 </r>
       <r>    3.3888    1.0000 </r>
       <r>    3.3889    1.0000 </r>
       <r>    4.7450    0.0000 </r>
       <r>    5.9255    0.0000 </r>
       <r>    7.0710    0.0000 </r>
       <r>    7.0711    0.0000 </r>
      </set>
      <set comment="kpoint 58">
       <r>   -8.5904    1.0000 </r>
       <r>   -7.5947    1.0000 </r>
       <r>   -1.9599    1.0000 </r>
       <r>    1.1782    1.0000 </r>
       <r>    2.5726    1.0000 </r>
       <r>    2.5727    1.0000 </r>
       <r>    3.2726    1.0000 </r>
       <r>    3.2726    1.0000 </r>
       <r>    4.8564    0.0000 </r>
       <r>    5.8430    0.0000 </r>
       <r>    7.1880    0.0000 </r>
       <r>    7.1880    0.0000 </r>
      </set>
      <set comment="kpoint 59">
       <r>   -8.4657    1.0000 </r>
       <r>   -7.7904    1.0000 </r>
       <r>   -1.5066    1.0000 </r>
       <r>    0.6073    1.0000 </r>
       <r>    2.6683    1.0000 </r>
       <r>    2.6683    1.0000 </r>
       <r>    3.1477    1.0000 </r>
       <r>    3.1478    1.0000 </r>
       <r>    4.9905    0.0000 </r>
       <r>    5.6843    0.0000 </r>
       <r>    7.3240    0.0000 </r>
       <r>    7.3241    0.0000 </r>
      </set>
      <set comment="kpoint 60">
       <r>   -8.3211    1.0000 </r>
       <r>   -7.9802    1.0000 </r>
       <r>   -1.0160    1.0000 </r>
       <r>    0.0471    1.0000 </r>
       <r>    2.7767    1.0000 </r>
       <r>    2.7768    1.0000 </r>
       <r>    3.0202    1.0000 </r>
       <r>    3.0203    1.0000 </r>
       <r>    5.1454    0.0000 </r>
       <r>    5.5012    0.0000 </r>
       <r>    7.4765    0.0000 </r>
       <r>    7.4768    0.0000 </r>
      </set>
      <set comment="kpoint 61">
       <r>   -8.1583    1.0000 </r>
       <r>   -8.1583    1.0000 </r>
       <r>   -0.4960    1.0000 </r>
       <r>   -0.4960    1.0000 </r>
       <r>    2.8952    1.0000 </r>
       <r>    2.8952    1.0000 </r>
       <r>    2.8952    1.0000 </r>
       <r>    2.8952    1.0000 </r>
       <r>    5.3177    0.0000 </r>
       <r>    5.3177    0.0000 </r>
       <r>    7.6427    0.0000 </r>
       <r>    7.6427    0.0000 </r>
      </set>
      <set comment="kpoint 62">
       <r>   -8.1486    1.0000 </r>
       <r>   -8.1486    1.0000 </r>
       <r>   -0.4978    1.0000 </r>
       <r>   -0.4978    1.0000 </r>
       <r>    2.7987    1.0000 </r>
       <r>    2.7987    1.0000 </r>
       <r>    2.8750    1.0000 </r>
       <r>    2.8750    1.0000 </r>
       <r>    5.4097    0.0000 </r>
       <r>    5.4097    0.0000 </r>
       <r>    7.6103    0.0000 </r>
       <r>    7.6103    0.0000 </r>
      </set>
      <set comment="kpoint 63">
       <r>   -8.1196    1.0000 </r>
       <r>   -8.1196    1.0000 </r>
       <r>   -0.5050    1.0000 </r>
       <r>   -0.5050    1.0000 </r>
       <r>    2.5515    1.0000 </r>
       <r>    2.5515    1.0000 </r>
       <r>    2.8168    1.0000 </r>
       <r>    2.8168    1.0000 </r>
       <r>    5.6363    0.0000 </r>
       <r>    5.6363    0.0000 </r>
       <r>    7.5292    0.0000 </r>
       <r>    7.5292    0.0000 </r>
      </set>
      <set comment="kpoint 64">
       <r>   -8.0715    1.0000 </r>
       <r>   -8.0715    1.0000 </r>
       <r>   -0.5231    1.0000 </r>
       <r>   -0.5231    1.0000 </r>
       <r>    2.2296    1.0000 </r>
       <r>    2.2296    1.0000 </r>
       <r>    2.7265    1.0000 </r>
       <r>    2.7265    1.0000 </r>
       <r>    5.8944    0.0000 </r>
       <r>    5.8944    0.0000 </r>
       <r>    7.4597    0.0000 </r>
       <r>    7.4597    0.0000 </r>
      </set>
      <set comment="kpoint 65">
       <r>   -8.0045    1.0000 </r>
       <r>   -8.0045    1.0000 </r>
       <r>   -0.5624    1.0000 </r>
       <r>   -0.5624    1.0000 </r>
       <r>    1.8924    1.0000 </r>
       <r>    1.8924    1.0000 </r>
       <r>    2.6121    1.0000 </r>
       <r>    2.6121    1.0000 </r>
       <r>    6.0717    0.0000 </r>
       <r>    6.0717    0.0000 </r>
       <r>    7.4816    0.0000 </r>
       <r>    7.4816    0.0000 </r>
      </set>
      <set comment="kpoint 66">
       <r>   -7.9193    1.0000 </r>
       <r>   -7.9193    1.0000 </r>
       <r>   -0.6386    1.0000 </r>
       <r>   -0.6385    1.0000 </r>
       <r>    1.5826    1.0000 </r>
       <r>    1.5826    1.0000 </r>
       <r>    2.4821    1.0000 </r>
       <r>    2.4821    1.0000 </r>
       <r>    6.0970    0.0000 </r>
       <r>    6.0970    0.0000 </r>
       <r>    7.6332    0.0000 </r>
       <r>    7.6332    0.0000 </r>
      </set>
      <set comment="kpoint 67">
       <r>   -7.8166    1.0000 </r>
       <r>   -7.8166    1.0000 </r>
       <r>   -0.7701    1.0000 </r>
       <r>   -0.7701    1.0000 </r>
       <r>    1.3334    1.0000 </r>
       <r>    1.3334    1.0000 </r>
       <r>    2.3441    1.0000 </r>
       <r>    2.3441    1.0000 </r>
       <r>    6.0027    0.0000 </r>
       <r>    6.0027    0.0000 </r>
       <r>    7.8178    0.0000 </r>
       <r>    7.8178    0.0000 </r>
      </set>
      <set comment="kpoint 68">
       <r>   -7.6974    1.0000 </r>
       <r>   -7.6974    1.0000 </r>
       <r>   -0.9689    1.0000 </r>
       <r>   -0.9689    1.0000 </r>
       <r>    1.1650    1.0000 </r>
       <r>    1.1650    1.0000 </r>
       <r>    2.2045    1.0000 </r>
       <r>    2.2045    1.0000 </r>
       <r>    5.8534    0.0000 </r>
       <r>    5.8535    0.0000 </r>
       <r>    7.8733    0.0000 </r>
       <r>    7.8733    0.0000 </r>
      </set>
      <set comment="kpoint 69">
       <r>   -7.5632    1.0000 </r>
       <r>   -7.5632    1.0000 </r>
       <r>   -1.2303    1.0000 </r>
       <r>   -1.2303    1.0000 </r>
       <r>    1.0782    1.0000 </r>
       <r>    1.0782    1.0000 </r>
       <r>    2.0685    1.0000 </r>
       <r>    2.0685    1.0000 </r>
       <r>    5.6883    0.0000 </r>
       <r>    5.6883    0.0000 </r>
       <r>    7.7550    0.0000 </r>
       <r>    7.7550    0.0000 </r>
      </set>
      <set comment="kpoint 70">
       <r>   -7.4160    1.0000 </r>
       <r>   -7.4160    1.0000 </r>
       <r>   -1.5352    1.0000 </r>
       <r>   -1.5352    1.0000 </r>
       <r>    1.0571    1.0000 </r>
       <r>    1.0571    1.0000 </r>
       <r>    1.9402    1.0000 </r>
       <r>    1.9402    1.0000 </r>
       <r>    5.5258    0.0000 </r>
       <r>    5.5259    0.0000 </r>
       <r>    7.5392    0.0000 </r>
       <r>    7.5392    0.0000 </r>
      </set>
      <set comment="kpoint 71">
       <r>   -7.2586    1.0000 </r>
       <r>   -7.2586    1.0000 </r>
       <r>   -1.8608    1.0000 </r>
       <r>   -1.8608    1.0000 </r>
       <r>    1.0816    1.0000 </r>
       <r>    1.0816    1.0000 </r>
       <r>    1.8227    1.0000 </r>
       <r>    1.8227    1.0000 </r>
       <r>    5.3753    0.0000 </r>
       <r>    5.3753    0.0000 </r>
       <r>    7.2890    0.0000 </r>
       <r>    7.2890    0.0000 </r>
      </set>
      <set comment="kpoint 72">
       <r>   -7.0952    1.0000 </r>
       <r>   -7.0952    1.0000 </r>
       <r>   -2.1871    1.0000 </r>
       <r>   -2.1871    1.0000 </r>
       <r>    1.1339    1.0000 </r>
       <r>    1.1339    1.0000 </r>
       <r>    1.7184    1.0000 </r>
       <r>    1.7184    1.0000 </r>
       <r>    5.2415    0.0000 </r>
       <r>    5.2416    0.0000 </r>
       <r>    7.0369    0.0000 </r>
       <r>    7.0369    0.0000 </r>
      </set>
     </set>
    </set>
   </array>
  </eigenvalues>
  <separator name="orbital magnetization" >
   <v name="MAGDIPOLOUT">      0.00000000      0.00000000      0.00000000</v>
  </separator>
  <dos>
   <i name="efermi">      3.68368483 </i>
   <total>
    <array>
     <dimension dim="1">gridpoints</dimension>
     <dimension dim="2">spin</dimension>
     <field>energy</field>
     <field>total</field>
     <field>integrated</field>
     <set>
      <set comment="spin 1">
       <r>    -9.7388     0.0000     0.0000 </r>
       <r>    -9.6758     0.0000     0.0000 </r>
       <r>    -9.6129     0.0000     0.0000 </r>
       <r>    -9.5499     0.0000     0.0000 </r>
       <r>    -9.4870     0.0000     0.0000 </r>
       <r>    -9.4241     0.0000     0.0000 </r>
       <r>    -9.3611     0.0000     0.0000 </r>
       <r>    -9.2982     0.0000     0.0000 </r>
       <r>    -9.2352     0.0000     0.0000 </r>
       <r>    -9.1723     0.0000     0.0000 </r>
       <r>    -9.1093     0.0000     0.0000 </r>
       <r>    -9.0464     0.0000     0.0000 </r>
       <r>    -8.9835     0.0000     0.0000 </r>
       <r>    -8.9205     0.0000     0.0000 </r>
       <r>    -8.8576     1.8507     0.1165 </r>
       <r>    -8.7946     3.0965     0.3117 </r>
       <r>    -8.7317     8.9493     0.8750 </r>
       <r>    -8.6687     0.0000     0.8750 </r>
       <r>    -8.6058    10.3145     1.5242 </r>
       <r>    -8.5429     2.5739     1.6871 </r>
       <r>    -8.4799     4.9718     2.0000 </r>
       <r>    -8.4170     0.0000     2.0000 </r>
       <r>    -8.3540     0.0000     2.0000 </r>
       <r>    -8.2911     0.0000     2.0000 </r>
       <r>    -8.2281     0.0000     2.0000 </r>
       <r>    -8.1652     0.0000     2.0000 </r>
       <r>    -8.1023     0.0000     2.0000 </r>
       <r>    -8.0393     0.0000     2.0000 </r>
       <r>    -7.9764     0.0000     2.0000 </r>
       <r>    -7.9134     0.0000     2.0000 </r>
       <r>    -7.8505     0.0000     2.0000 </r>
       <r>    -7.7876     0.0000     2.0000 </r>
       <r>    -7.7246     0.0000     2.0000 </r>
       <r>    -7.6617     0.0000     2.0000 </r>
       <r>    -7.5987     0.0000     2.0000 </r>
       <r>    -7.5358     0.0000     2.0000 </r>
       <r>    -7.4728     0.0000     2.0000 </r>
       <r>    -7.4099     0.0000     2.0000 </r>
       <r>    -7.3470     0.0000     2.0000 </r>
       <r>    -7.2840     0.0000     2.0000 </r>
       <r>    -7.2211     0.0000     2.0000 </r>
       <r>    -7.1581     0.0000     2.0000 </r>
       <r>    -7.0952     0.0000     2.0000 </r>
       <r>    -7.0322     0.0000     2.0000 </r>
       <r>    -6.9693     0.4967     2.0313 </r>
       <r>    -6.9064     3.8684     2.2748 </r>
       <r>    -6.8434     9.4420     2.8691 </r>
       <r>    -6.7805     0.1067     2.8759 </r>
       <r>    -6.7175     7.3397     3.3378 </r>
       <r>    -6.6546     6.6921     3.7590 </r>
       <r>    -6.5916     3.8282     4.0000 </r>
       <r>    -6.5287     0.0000     4.0000 </r>
       <r>    -6.4658     0.0000     4.0000 </r>
       <r>    -6.4028     0.0000     4.0000 </r>
       <r>    -6.3399     0.0000     4.0000 </r>
       <r>    -6.2769     0.0000     4.0000 </r>
       <r>    -6.2140     0.0000     4.0000 </r>
       <r>    -6.1511     0.0000     4.0000 </r>
       <r>    -6.0881     0.0000     4.0000 </r>
       <r>    -6.0252     0.0000     4.0000 </r>
       <r>    -5.9622     0.0000     4.0000 </r>
       <r>    -5.8993     0.0000     4.0000 </r>
       <r>    -5.8363     0.0000     4.0000 </r>
       <r>    -5.7734     0.0000     4.0000 </r>
       <r>    -5.7105     0.0000     4.0000 </r>
       <r>    -5.6475     0.0000     4.0000 </r>
       <r>    -5.5846     0.0000     4.0000 </r>
       <r>    -5.5216     0.0000     4.0000 </r>
       <r>    -5.4587     0.0000     4.0000 </r>
       <r>    -5.3957     0.0000     4.0000 </r>
       <r>    -5.3328     0.0000     4.0000 </r>
       <r>    -5.2699     0.0000     4.0000 </r>
       <r>    -5.2069     0.0000     4.0000 </r>
       <r>    -5.1440     0.0000     4.0000 </r>
       <r>    -5.0810     0.0000     4.0000 </r>
       <r>    -5.0181     0.0000     4.0000 </r>
       <r>    -4.9551     0.0000     4.0000 </r>
       <r>    -4.8922     0.0000     4.0000 </r>
       <r>    -4.8293     0.0000     4.0000 </r>
       <r>    -4.7663     0.0000     4.0000 </r>
       <r>    -4.7034     0.0000     4.0000 </r>
       <r>    -4.6404     0.0000     4.0000 </r>
       <r>    -4.5775     0.0000     4.0000 </r>
       <r>    -4.5146     0.0000     4.0000 </r>
       <r>    -4.4516     0.0000     4.0000 </r>
       <r>    -4.3887     0.0000     4.0000 </r>
       <r>    -4.3257     0.0000     4.0000 </r>
       <r>    -4.2628     0.0000     4.0000 </r>
       <r>    -4.1998     0.0000     4.0000 </r>
       <r>    -4.1369     0.0000     4.0000 </r>
       <r>    -4.0740     0.0000     4.0000 </r>
       <r>    -4.0110     0.0000     4.0000 </r>
       <r>    -3.9481     0.0000     4.0000 </r>
       <r>    -3.8851     0.0000     4.0000 </r>
       <r>    -3.8222     0.0000     4.0000 </r>
       <r>    -3.7592     0.0000     4.0000 </r>
       <r>    -3.6963     0.0000     4.0000 </r>
       <r>    -3.6334     0.0000     4.0000 </r>
       <r>    -3.5704     0.0000     4.0000 </r>
       <r>    -3.5075     0.0000     4.0000 </r>
       <r>    -3.4445     0.0000     4.0000 </r>
       <r>    -3.3816     0.0000     4.0000 </r>
       <r>    -3.3186     0.0000     4.0000 </r>
       <r>    -3.2557     0.0000     4.0000 </r>
       <r>    -3.1928     0.9873     4.0621 </r>
       <r>    -3.1298     9.3623     4.6514 </r>
       <r>    -3.0669     7.4891     5.1228 </r>
       <r>    -3.0039     9.8463     5.7426 </r>
       <r>    -2.9410     4.0893     6.0000 </r>
       <r>    -2.8781     0.0000     6.0000 </r>
       <r>    -2.8151     0.0000     6.0000 </r>
       <r>    -2.7522     0.0000     6.0000 </r>
       <r>    -2.6892     0.0000     6.0000 </r>
       <r>    -2.6263     0.0000     6.0000 </r>
       <r>    -2.5633     0.0000     6.0000 </r>
       <r>    -2.5004     0.0000     6.0000 </r>
       <r>    -2.4375     0.0000     6.0000 </r>
       <r>    -2.3745     0.0000     6.0000 </r>
       <r>    -2.3116     0.0000     6.0000 </r>
       <r>    -2.2486     0.0000     6.0000 </r>
       <r>    -2.1857     0.0000     6.0000 </r>
       <r>    -2.1227     0.0000     6.0000 </r>
       <r>    -2.0598     0.0000     6.0000 </r>
       <r>    -1.9969     0.0000     6.0000 </r>
       <r>    -1.9339     0.0000     6.0000 </r>
       <r>    -1.8710     0.0000     6.0000 </r>
       <r>    -1.8080     0.0000     6.0000 </r>
       <r>    -1.7451     0.0000     6.0000 </r>
       <r>    -1.6821     0.0000     6.0000 </r>
       <r>    -1.6192     0.0000     6.0000 </r>
       <r>    -1.5563     0.0000     6.0000 </r>
       <r>    -1.4933     0.0000     6.0000 </r>
       <r>    -1.4304     0.0000     6.0000 </r>
       <r>    -1.3674     0.0000     6.0000 </r>
       <r>    -1.3045     0.0000     6.0000 </r>
       <r>    -1.2416     0.0000     6.0000 </r>
       <r>    -1.1786     0.0000     6.0000 </r>
       <r>    -1.1157     0.0000     6.0000 </r>
       <r>    -1.0527     0.0000     6.0000 </r>
       <r>    -0.9898     0.0000     6.0000 </r>
       <r>    -0.9268     0.0000     6.0000 </r>
       <r>    -0.8639     0.0000     6.0000 </r>
       <r>    -0.8010     0.0000     6.0000 </r>
       <r>    -0.7380     0.0000     6.0000 </r>
       <r>    -0.6751     0.0000     6.0000 </r>
       <r>    -0.6121     0.0000     6.0000 </r>
       <r>    -0.5492     0.0000     6.0000 </r>
       <r>    -0.4862     0.0000     6.0000 </r>
       <r>    -0.4233     0.0000     6.0000 </r>
       <r>    -0.3604     0.0000     6.0000 </r>
       <r>    -0.2974     0.0000     6.0000 </r>
       <r>    -0.2345     0.0000     6.0000 </r>
       <r>    -0.1715     0.0000     6.0000 </r>
       <r>    -0.1086     0.0000     6.0000 </r>
       <r>    -0.0456     0.0000     6.0000 </r>
       <r>     0.0173     0.0000     6.0000 </r>
       <r>     0.0802     0.0000     6.0000 </r>
       <r>     0.1432     0.0000     6.0000 </r>
       <r>     0.2061     0.0000     6.0000 </r>
       <r>     0.2691     0.0000     6.0000 </r>
       <r>     0.3320     0.0000     6.0000 </r>
       <r>     0.3949     1.2672     6.0798 </r>
       <r>     0.4579     4.6907     6.3750 </r>
       <r>     0.5208     0.0000     6.3750 </r>
       <r>     0.5838     0.0000     6.3750 </r>
       <r>     0.6467     0.0000     6.3750 </r>
       <r>     0.7097     7.9253     6.8738 </r>
       <r>     0.7726     3.9904     7.1250 </r>
       <r>     0.8355     0.0000     7.1250 </r>
       <r>     0.8985     0.0000     7.1250 </r>
       <r>     0.9614     0.0000     7.1250 </r>
       <r>     1.0244     0.0000     7.1250 </r>
       <r>     1.0873     0.0000     7.1250 </r>
       <r>     1.1503     0.0000     7.1250 </r>
       <r>     1.2132     0.0000     7.1250 </r>
       <r>     1.2761     0.0030     7.1252 </r>
       <r>     1.3391     2.4977     7.2824 </r>
       <r>     1.4020     3.4571     7.5000 </r>
       <r>     1.4650     0.0000     7.5000 </r>
       <r>     1.5279     0.0000     7.5000 </r>
       <r>     1.5909    10.3668     8.1525 </r>
       <r>     1.6538    10.0912     8.7886 </r>
       <r>     1.7167     6.1522     9.1758 </r>
       <r>     1.7797     3.1647     9.3750 </r>
       <r>     1.8426     0.0000     9.3750 </r>
       <r>     1.9056     1.1086     9.4448 </r>
       <r>     1.9685    10.8035    10.1248 </r>
       <r>     2.0314     0.0000    10.1250 </r>
       <r>     2.0944     0.0000    10.1250 </r>
       <r>     2.1573    10.7648    10.8026 </r>
       <r>     2.2203     1.1508    10.8750 </r>
       <r>     2.2832     0.0000    10.8750 </r>
       <r>     2.3462     1.7032    10.9822 </r>
       <r>     2.4091     2.2687    11.1250 </r>
       <r>     2.4720     0.0000    11.1250 </r>
       <r>     2.5350     0.0000    11.1250 </r>
       <r>     2.5979     0.0000    11.1250 </r>
       <r>     2.6609     2.9772    11.3124 </r>
       <r>     2.7238     0.0004    11.3125 </r>
       <r>     2.7868     6.9702    11.7512 </r>
       <r>     2.8497     1.9661    11.8750 </r>
       <r>     2.9126     0.0000    11.8750 </r>
       <r>     2.9756     0.0000    11.8750 </r>
       <r>     3.0385     2.4133    12.0269 </r>
       <r>     3.1015     8.9059    12.5875 </r>
       <r>     3.1644    11.6461    13.3206 </r>
       <r>     3.2274    10.1925    13.9621 </r>
       <r>     3.2903     3.0843    14.1563 </r>
       <r>     3.3532     3.1120    14.3521 </r>
       <r>     3.4162     9.5028    14.9503 </r>
       <r>     3.4791     2.8373    15.1288 </r>
       <r>     3.5421     9.8688    15.7500 </r>
       <r>     3.6050     0.2878    15.7681 </r>
       <r>     3.6679     3.6841    16.0000 </r>
       <r>     3.7309     0.0000    16.0000 </r>
       <r>     3.7938     0.0000    16.0000 </r>
       <r>     3.8568     0.0000    16.0000 </r>
       <r>     3.9197     0.0000    16.0000 </r>
       <r>     3.9827     0.0000    16.0000 </r>
       <r>     4.0456     0.0000    16.0000 </r>
       <r>     4.1085     0.0000    16.0000 </r>
       <r>     4.1715     0.0000    16.0000 </r>
       <r>     4.2344     0.0000    16.0000 </r>
       <r>     4.2974     0.0000    16.0000 </r>
       <r>     4.3603     0.0000    16.0000 </r>
       <r>     4.4233     0.0000    16.0000 </r>
       <r>     4.4862     0.0000    16.0000 </r>
       <r>     4.5491     0.8735    16.0550 </r>
       <r>     4.6121     1.1125    16.1250 </r>
       <r>     4.6750     0.0000    16.1250 </r>
       <r>     4.7380     0.0000    16.1250 </r>
       <r>     4.8009     0.0000    16.1250 </r>
       <r>     4.8639     0.0000    16.1250 </r>
       <r>     4.9268     0.0000    16.1250 </r>
       <r>     4.9897     0.0000    16.1250 </r>
       <r>     5.0527     0.0052    16.1253 </r>
       <r>     5.1156     0.4915    16.1563 </r>
       <r>     5.1786     0.9931    16.2188 </r>
       <r>     5.2415    11.9054    16.9681 </r>
       <r>     5.3044     0.0239    16.9703 </r>
       <r>     5.3674     0.4726    17.0000 </r>
       <r>     5.4303     0.0000    17.0000 </r>
       <r>     5.4933     0.0000    17.0000 </r>
       <r>     5.5562     0.0000    17.0000 </r>
       <r>     5.6192     0.0062    17.0004 </r>
       <r>     5.6821     8.5039    17.5356 </r>
       <r>     5.7450    12.3782    18.3148 </r>
       <r>     5.8080     8.7561    18.8659 </r>
       <r>     5.8709     0.1214    18.8750 </r>
       <r>     5.9339     0.0000    18.8750 </r>
       <r>     5.9968     0.0000    18.8750 </r>
       <r>     6.0598     0.0094    18.8756 </r>
       <r>     6.1227    11.9062    19.6250 </r>
       <r>     6.1856     0.1104    19.6319 </r>
       <r>     6.2486     5.8474    20.0000 </r>
       <r>     6.3115     0.0000    20.0000 </r>
       <r>     6.3745     0.0000    20.0000 </r>
       <r>     6.4374     0.0000    20.0000 </r>
       <r>     6.5004     0.0000    20.0000 </r>
       <r>     6.5633     0.0000    20.0000 </r>
       <r>     6.6262     0.0000    20.0000 </r>
       <r>     6.6892     0.0001    20.0000 </r>
       <r>     6.7521    12.1052    20.7619 </r>
       <r>     6.8151     8.9306    21.3242 </r>
       <r>     6.8780    10.6687    21.9958 </r>
       <r>     6.9409     0.1744    22.0076 </r>
       <r>     7.0039     1.3693    22.0937 </r>
       <r>     7.0668     0.0067    22.0942 </r>
       <r>     7.1298    11.8638    22.8409 </r>
       <r>     7.1927     0.0452    22.8438 </r>
       <r>     7.2557     0.4960    22.8750 </r>
       <r>     7.3186     0.0000    22.8750 </r>
       <r>     7.3815     0.0000    22.8750 </r>
       <r>     7.4445     0.0000    22.8750 </r>
       <r>     7.5074     0.0001    22.8750 </r>
       <r>     7.5704    10.2772    23.5219 </r>
       <r>     7.6333     1.6377    23.6250 </r>
       <r>     7.6963     3.3917    23.8385 </r>
       <r>     7.7592     2.5660    24.0000 </r>
       <r>     7.8221     0.0000    24.0000 </r>
       <r>     7.8851     0.0000    24.0000 </r>
       <r>     7.9480     0.0000    24.0000 </r>
       <r>     8.0110     0.0000    24.0000 </r>
       <r>     8.0739     0.0000    24.0000 </r>
       <r>     8.1369     0.0000    24.0000 </r>
       <r>     8.1998     0.0000    24.0000 </r>
       <r>     8.2627     0.0000    24.0000 </r>
       <r>     8.3257     0.0000    24.0000 </r>
       <r>     8.3886     0.0000    24.0000 </r>
       <r>     8.4516     0.0000    24.0000 </r>
       <r>     8.5145     0.0000    24.0000 </r>
       <r>     8.5774     0.0000    24.0000 </r>
       <r>     8.6404     0.0000    24.0000 </r>
       <r>     8.7033     0.0000    24.0000 </r>
       <r>     8.7663     0.0000    24.0000 </r>
       <r>     8.8292     0.0000    24.0000 </r>
       <r>     8.8922     0.0000    24.0000 </r>
       <r>     8.9551     0.0000    24.0000 </r>
       <r>     9.0180     0.0000    24.0000 </r>
       <r>     9.0810     0.0000    24.0000 </r>
       <r>     9.1439     0.0000    24.0000 </r>
      </set>
     </set>
    </array>
   </total>
  </dos>
 </calculation>
 <structure name="finalpos" >
  <crystal>
   <varray name="basis" >
    <v>       3.88035670       0.00000000       0.00000000 </v>
    <v>      -1.94017835       3.36048748       0.00000000 </v>
    <v>       0.00000000       0.00000000       6.39536110 </v>
   </varray>
   <i name="volume">     83.39480590 </i>
   <varray name="rec_basis" >
    <v>       0.25770827       0.14878794      -0.00000000 </v>
    <v>       0.00000000       0.29757587      -0.00000000 </v>
    <v>       0.00000000       0.00000000       0.15636334 </v>
   </varray>
  </crystal>
  <varray name="positions" >
   <v>       0.66666700       0.33333300       0.49993900 </v>
   <v>       0.33333300       0.66666700       0.99993900 </v>
   <v>       0.66666700       0.33333300       0.87406100 </v>
   <v>       0.33333300       0.66666700       0.37406100 </v>
  </varray>
 </structure>
</modeling>
