Band structure                          
           1
     3.880357    0.000000    0.000000
    -1.940178    3.360487    0.000000
     0.000000    0.000000    6.395361
   Ga   P 
   2   2
Direct configuration=     1
   0.66666700  0.33333300  0.49993900
   0.33333300  0.66666700  0.99993900
   0.66666700  0.33333300  0.87406100
   0.33333300  0.66666700  0.37406100
