Band structure                          
   1.00000000000000     
     0.000000    2.729500    2.729500
     2.729500    0.000000    2.729500
     2.729500    2.729500    0.000000
   Si
     2
Direct
  0.000000  0.000000  0.000000
  0.250000  0.250000  0.250000
 
   48   48   48
 -8.1166     -7.2793     -4.8936     -1.3155      2.9371      7.2861      11.206      14.314      16.412      17.479    
  17.636      17.093      16.103      14.905      13.635      12.366      11.159      10.054      9.0788      8.2438    
  7.5530      7.0081      6.6124      6.3714      6.2904      6.3714      6.6124      7.0081      7.5530      8.2438    
  9.0788      10.054      11.159      12.366      13.635      14.905      16.103      17.093      17.636      17.479    
  16.412      14.314      11.206      7.2861      2.9371     -1.3155     -4.8936     -7.2793     -7.2793     -5.5090    
 -2.2542      1.9759      6.5600      10.895      14.509      17.121      18.651      19.178      18.892      18.037    
  16.868      15.577      14.251      12.954      11.738      10.637      9.6721      8.8519      8.1819      7.6676    
  7.3170      7.1389      7.1389      7.3170      7.6676      8.1819      8.8520      9.6721      10.637      11.738    
  12.954      14.251      15.577      16.868      18.037      18.892      19.178      18.651      17.121      14.509    
  10.895      6.5600      1.9759     -2.2542     -5.5090     -7.2793     -4.8936     -2.2542      1.6456      6.1848    
  10.709      14.666      17.693      19.635      20.525      20.519      19.848      18.764      17.492      16.148    
  14.799      13.501      12.297      11.215      10.271      9.4741      8.8342      8.3627      8.0726      7.9745    
  8.0726      8.3627      8.8342      9.4741      10.271      11.215      12.297      13.501      14.799      16.148    
  17.492      18.764      19.848      20.519      20.525      19.635      17.693      14.666      10.709      6.1848    
  1.6457     -2.2542     -4.8936     -5.8272     -1.3155      1.9759      6.1848      10.649      14.758      18.070    
  20.356      21.584      21.871      21.423      20.481      19.278      17.965      16.610      15.273      14.000    
  12.826      11.773      10.857      10.091      9.4919      9.0774      8.8649      8.8649      9.0774      9.4919    
  10.091      10.857      11.773      12.826      14.000      15.273      16.610      17.965      19.278      20.481    
  21.423      21.871      21.584      20.356      18.070      14.758      10.649      6.1848      1.9759     -1.3154    
 -3.1239     -3.1239      2.9371      6.5600      10.709      14.758      18.203      20.739      22.265      22.846    
  22.651      21.902      20.827      19.598      18.292      16.966      15.670      14.440      13.306      12.289    
  11.406      10.679      10.132      9.7916      9.6755      9.7916      10.132      10.679      11.406      12.289    
  13.306      14.440      15.670      16.966      18.292      19.598      20.827      21.902      22.651      22.846    
  22.265      20.739      18.203      14.758      10.709      6.5600      2.9371     0.45775     -.42430     0.45774    
  7.2861      10.895      14.666      18.070      20.739      22.501      23.357      23.433      22.920      22.030    
  20.942      19.741      18.483      17.216      15.979      14.804      13.715      12.734      11.889      11.210    
  10.731      10.483      10.483      10.731      11.210      11.889      12.734      13.715      14.804      15.979    
  17.216      18.483      19.741      20.942      22.030      22.920      23.433      23.357      22.501      20.739    
  18.070      14.666      10.895      7.2861      4.4337      2.8563      2.8563      4.4337      11.206      14.509    
  17.693      20.356      22.265      23.357      23.702      23.452      22.793      21.899      20.860      19.727    
  18.546      17.356      16.188      15.068      14.022      13.079      12.276      11.658      11.266      11.131    
  11.266      11.658      12.276      13.079      14.022      15.068      16.188      17.356      18.546      19.727    
  20.860      21.899      22.793      23.452      23.702      23.357      22.265      20.356      17.693      14.509    
  11.206      8.2975      6.2955      5.5813      6.2955      8.2975      14.314      17.121      19.635      21.584    
  22.846      23.433      23.452      23.055      22.398      21.567      20.611      19.571      18.483      17.376    
  16.275      15.206      14.198      13.293      12.543      12.002      11.718      11.718      12.002      12.543    
  13.293      14.198      15.206      16.275      17.376      18.483      19.571      20.611      21.567      22.398    
  23.055      23.452      23.433      22.846      21.584      19.635      17.121      14.314      11.614      9.4723    
  8.2854      8.2854      9.4723      11.614      16.412      18.651      20.525      21.871      22.651      22.920    
  22.793      22.398      21.809      21.070      20.218      19.284      18.292      17.263      16.219      15.190    
  14.215      13.354      12.671      12.229      12.076      12.229      12.671      13.354      14.215      15.190    
  16.219      17.263      18.292      19.284      20.218      21.070      21.809      22.398      22.793      22.920    
  22.651      21.871      20.525      18.651      16.412      14.090      12.045      10.638      10.136      10.638    
  12.045      14.090      17.479      19.178      20.519      21.423      21.902      22.030      21.899      21.567    
  21.070      20.440      19.700      18.870      17.965      16.999      15.998      14.999      14.059      13.250    
  12.651      12.332      12.332      12.651      13.250      14.059      14.999      15.998      16.999      17.965    
  18.870      19.700      20.440      21.070      21.567      21.899      22.030      21.902      21.423      20.519    
  19.178      17.479      15.601      13.805      12.387      11.603      11.603      12.387      13.805      15.601    
  17.636      18.892      19.848      20.481      20.827      20.942      20.860      20.611      20.218      19.700    
  19.068      18.329      17.492      16.571      15.598      14.623      13.718      12.975      12.484      12.312    
  12.484      12.975      13.718      14.623      15.598      16.571      17.492      18.329      19.068      19.700    
  20.218      20.611      20.860      20.942      20.827      20.481      19.848      18.892      17.636      16.179    
  14.695      13.403      12.519      12.205      12.519      13.403      14.695      16.179      17.093      18.037    
  18.764      19.278      19.598      19.741      19.727      19.571      19.284      18.870      18.329      17.660    
  16.868      15.974      15.017      14.061      13.203      12.552      12.199      12.199      12.552      13.203    
  14.061      15.017      15.974      16.868      17.660      18.329      18.870      19.284      19.571      19.727    
  19.741      19.598      19.278      18.764      18.037      17.093      15.977      14.792      13.685      12.824    
  12.352      12.352      12.824      13.685      14.792      15.977      16.103      16.868      17.492      17.965    
  18.292      18.483      18.546      18.483      18.292      17.965      17.492      16.868      16.103      15.219    
  14.269      13.346      12.565      12.040      11.855      12.040      12.565      13.346      14.269      15.219    
  16.103      16.868      17.492      17.965      18.292      18.483      18.546      18.483      18.292      17.965    
  17.492      16.868      16.103      15.219      14.269      13.346      12.565      12.040      11.855      12.040    
  12.565      13.346      14.269      15.219      14.905      15.577      16.148      16.610      16.966      17.216    
  17.356      17.376      17.263      16.999      16.571      15.974      15.219      14.339      13.414      12.557    
  11.893      11.530      11.530      11.893      12.557      13.414      14.339      15.219      15.974      16.571    
  16.999      17.263      17.376      17.356      17.216      16.966      16.610      16.148      15.577      14.905    
  14.150      13.353      12.570      11.877      11.354      11.073      11.073      11.354      11.877      12.570    
  13.353      14.150      13.635      14.251      14.799      15.273      15.670      15.979      16.188      16.275    
  16.219      15.998      15.598      15.017      14.269      13.414      12.551      11.805      11.298      11.118    
  11.298      11.805      12.551      13.414      14.269      15.017      15.598      15.998      16.219      16.275    
  16.188      15.979      15.670      15.273      14.799      14.251      13.635      12.964      12.263      11.571    
  10.942      10.436      10.106      9.9915      10.106      10.436      10.942      11.571      12.263      12.964    
  12.366      12.954      13.501      14.000      14.440      14.804      15.068      15.206      15.190      14.999    
  14.623      14.061      13.346      12.557      11.805      11.214      10.888      10.888      11.214      11.805    
  12.557      13.346      14.061      14.623      14.999      15.190      15.206      15.068      14.804      14.440    
  14.000      13.501      12.954      12.366      11.748      11.115      10.493      9.9178      9.4323      9.0793    
  8.8932      8.8932      9.0793      9.4323      9.9178      10.493      11.115      11.748      11.159      11.738    
  12.297      12.826      13.306      13.715      14.022      14.198      14.215      14.059      13.718      13.203    
  12.565      11.893      11.298      10.888      10.742      10.888      11.298      11.893      12.565      13.203    
  13.718      14.059      14.215      14.198      14.022      13.715      13.306      12.826      12.297      11.738    
  11.159      10.569      9.9809      9.4092      8.8780      8.4171      8.0582      7.8298      7.7513      7.8298    
  8.0582      8.4171      8.8780      9.4092      9.9809      10.569      10.054      10.637      11.215      11.773    
  12.289      12.734      13.079      13.293      13.354      13.250      12.975      12.552      12.040      11.530    
  11.118      10.888      10.888      11.118      11.530      12.040      12.552      12.975      13.250      13.354    
  13.293      13.079      12.734      12.289      11.773      11.215      10.637      10.054      9.4772      8.9144    
  8.3764      7.8783      7.4398      7.0835      6.8313      6.7005      6.7005      6.8313      7.0835      7.4398    
  7.8783      8.3764      8.9144      9.4772      9.0788      9.6721      10.271      10.857      11.406      11.889    
  12.276      12.543      12.671      12.651      12.484      12.199      11.855      11.530      11.298      11.214    
  11.298      11.530      11.855      12.199      12.484      12.651      12.671      12.543      12.276      11.889    
  11.406      10.857      10.271      9.6721      9.0788      8.5030      7.9528      7.4354      6.9601      6.5394    
  6.1887      5.9239      5.7588      5.7026      5.7588      5.9239      6.1887      6.5394      6.9601      7.4354    
  7.9528      8.5030      8.2438      8.8519      9.4741      10.091      10.679      11.210      11.658      12.002    
  12.229      12.332      12.312      12.199      12.040      11.893      11.805      11.805      11.893      12.040    
  12.199      12.312      12.332      12.229      12.002      11.658      11.210      10.679      10.091      9.4741    
  8.8520      8.2438      7.6624      7.1158      6.6094      6.1486      5.7409      5.3959      5.1246      4.9372    
  4.8414      4.8414      4.9372      5.1246      5.3959      5.7409      6.1486      6.6094      7.1158      7.6624    
  7.5530      8.1819      8.8342      9.4919      10.132      10.731      11.266      11.718      12.076      12.332    
  12.484      12.552      12.565      12.557      12.551      12.557      12.565      12.552      12.484      12.332    
  12.076      11.718      11.266      10.731      10.132      9.4919      8.8342      8.1819      7.5530      6.9600    
  6.4101      5.9073      5.4544      5.0550      4.7147      4.4401      4.2381      4.1145      4.0728      4.1145    
  4.2381      4.4401      4.7147      5.0550      5.4544      5.9073      6.4101      6.9600      7.0081      7.6676    
  8.3627      9.0774      9.7916      10.483      11.131      11.718      12.229      12.651      12.975      13.203    
  13.346      13.414      13.414      13.346      13.203      12.975      12.651      12.229      11.718      11.131    
  10.483      9.7916      9.0774      8.3627      7.6676      7.0081      6.3952      5.8347      5.3287      4.8777    
  4.4824      4.1447      3.8681      3.6563      3.5130      3.4408      3.4408      3.5130      3.6563      3.8681    
  4.1447      4.4824      4.8777      5.3287      5.8347      6.3952      6.6124      7.3170      8.0726      8.8649    
  9.6755      10.483      11.266      12.002      12.671      13.250      13.718      14.061      14.269      14.339    
  14.269      14.061      13.718      13.250      12.671      12.002      11.266      10.483      9.6755      8.8649    
  8.0726      7.3170      6.6124      5.9676      5.3866      4.8691      4.4134      4.0172      3.6795      3.4005    
  3.1816      3.0242      2.9293      2.8976      2.9293      3.0242      3.1816      3.4005      3.6795      4.0172    
  4.4134      4.8691      5.3865      5.9676      6.3714      7.1389      7.9745      8.8649      9.7916      10.731    
  11.658      12.543      13.354      14.059      14.623      15.017      15.219      15.219      15.017      14.623    
  14.059      13.354      12.543      11.658      10.731      9.7916      8.8649      7.9745      7.1389      6.3714    
  5.6793      5.0646      4.5250      4.0559      3.6523      3.3103      3.0273      2.8019      2.6335      2.5216    
  2.4659      2.4659      2.5216      2.6335      2.8019      3.0273      3.3103      3.6523      4.0559      4.5249    
  5.0646      5.6793      6.2904      7.1389      8.0726      9.0774      10.132      11.210      12.276      13.293    
  14.215      14.999      15.598      15.974      16.103      15.974      15.598      14.999      14.215      13.293    
  12.276      11.210      10.132      9.0774      8.0726      7.1389      6.2904      5.5338      4.8700      4.2947    
  3.8012      3.3817      3.0294      2.7387      2.5056      2.3275      2.2021      2.1276      2.1029      2.1276    
  2.2021      2.3275      2.5056      2.7387      3.0294      3.3817      3.8012      4.2947      4.8700      5.5338    
  6.3714      7.3170      8.3627      9.4919      10.679      11.889      13.079      14.198      15.190      15.998    
  16.571      16.868      16.868      16.571      15.998      15.190      14.198      13.079      11.889      10.679    
  9.4919      8.3627      7.3170      6.3714      5.5338      4.8047      4.1791      3.6482      3.2021      2.8312    
  2.5272      2.2835      2.0949      1.9573      1.8676      1.8234      1.8234      1.8676      1.9573      2.0949    
  2.2835      2.5272      2.8312      3.2021      3.6482      4.1791      4.8047      5.5338      6.6124      7.6676    
  8.8342      10.091      11.406      12.734      14.022      15.206      16.219      16.999      17.492      17.660    
  17.492      16.999      16.219      15.206      14.022      12.734      11.406      10.091      8.8342      7.6676    
  6.6124      5.6793      4.8700      4.1791      3.5971      3.1123      2.7129      2.3881      2.1287      1.9270    
  1.7769      1.6735      1.6130      1.5931      1.6130      1.6735      1.7769      1.9270      2.1287      2.3881    
  2.7129      3.1123      3.5971      4.1791      4.8700      5.6793      7.0081      8.1819      9.4741      10.857    
  12.289      13.715      15.068      16.275      17.263      17.965      18.329      18.329      17.965      17.263    
  16.275      15.068      13.715      12.289      10.857      9.4741      8.1819      7.0081      5.9676      5.0646    
  4.2947      3.6482      3.1123      2.6736      2.3191      2.0372      1.8180      1.6531      1.5358      1.4608    
  1.4242      1.4242      1.4608      1.5358      1.6531      1.8180      2.0372      2.3191      2.6736      3.1123    
  3.6482      4.2947      5.0646      5.9676      7.5530      8.8520      10.271      11.773      13.306      14.804    
  16.188      17.376      18.292      18.870      19.068      18.870      18.292      17.376      16.188      14.804    
  13.306      11.773      10.271      8.8520      7.5530      6.3952      5.3866      4.5250      3.8012      3.2021    
  2.7129      2.3191      2.0069      1.7643      1.5809      1.4478      1.3581      1.3064      1.2896      1.3064    
  1.3581      1.4478      1.5809      1.7643      2.0069      2.3191      2.7129      3.2021      3.8012      4.5249    
  5.3865      6.3952      8.2438      9.6721      11.215      12.826      14.440      15.979      17.356      18.483    
  19.284      19.700      19.700      19.284      18.483      17.356      15.979      14.440      12.826      11.215    
  9.6721      8.2438      6.9600      5.8347      4.8691      4.0559      3.3817      2.8312      2.3881      2.0372    
  1.7643      1.5571      1.4049      1.2990      1.2323      1.2001      1.2001      1.2323      1.2990      1.4049    
  1.5571      1.7643      2.0372      2.3881      2.8312      3.3817      4.0559      4.8691      5.8347      6.9600    
  9.0788      10.637      12.297      14.000      15.670      17.216      18.546      19.571      20.218      20.440    
  20.218      19.571      18.546      17.216      15.670      14.000      12.297      10.637      9.0788      7.6624    
  6.4101      5.3287      4.4134      3.6523      3.0294      2.5272      2.1287      1.8180      1.5809      1.4049    
  1.2797      1.1965      1.1492      1.1339      1.1492      1.1965      1.2797      1.4049      1.5809      1.8180    
  2.1287      2.5272      3.0294      3.6523      4.4134      5.3287      6.4101      7.6624      10.054      11.738    
  13.501      15.273      16.966      18.483      19.727      20.611      21.070      21.070      20.611      19.727    
  18.483      16.966      15.273      13.501      11.738      10.054      8.5030      7.1158      5.9073      4.8777    
  4.0172      3.3103      2.7387      2.2835      1.9270      1.6531      1.4478      1.2990      1.1965      1.1327    
  1.1022      1.1022      1.1327      1.1965      1.2990      1.4478      1.6531      1.9270      2.2835      2.7387    
  3.3103      4.0172      4.8777      5.9073      7.1158      8.5030      11.159      12.954      14.799      16.610    
  18.292      19.741      20.860      21.567      21.809      21.567      20.860      19.741      18.292      16.610    
  14.799      12.954      11.159      9.4772      7.9528      6.6094      5.4544      4.4824      3.6795      3.0273    
  2.5056      2.0949      1.7769      1.5358      1.3581      1.2323      1.1492      1.1022      1.0870      1.1022    
  1.1492      1.2323      1.3581      1.5358      1.7769      2.0949      2.5056      3.0273      3.6795      4.4824    
  5.4544      6.6094      7.9528      9.4772      12.366      14.251      16.148      17.965      19.598      20.942    
  21.899      22.398      22.398      21.899      20.942      19.598      17.965      16.148      14.251      12.366    
  10.569      8.9144      7.4354      6.1486      5.0550      4.1447      3.4005      2.8019      2.3275      1.9573    
  1.6735      1.4608      1.3064      1.2001      1.1339      1.1022      1.1022      1.1339      1.2001      1.3064    
  1.4608      1.6735      1.9573      2.3275      2.8019      3.4005      4.1447      5.0550      6.1486      7.4354    
  8.9144      10.569      13.635      15.577      17.492      19.278      20.827      22.030      22.793      23.055    
  22.793      22.030      20.827      19.278      17.492      15.577      13.635      11.748      9.9809      8.3764    
  6.9601      5.7409      4.7147      3.8681      3.1816      2.6335      2.2021      1.8676      1.6130      1.4242    
  1.2896      1.2001      1.1492      1.1327      1.1492      1.2001      1.2896      1.4242      1.6130      1.8676    
  2.2021      2.6335      3.1816      3.8681      4.7147      5.7409      6.9601      8.3764      9.9809      11.748    
  14.905      16.868      18.764      20.481      21.902      22.920      23.452      23.452      22.920      21.902    
  20.481      18.764      16.868      14.905      12.964      11.115      9.4092      7.8783      6.5394      5.3959    
  4.4401      3.6563      3.0242      2.5216      2.1276      1.8234      1.5931      1.4242      1.3064      1.2323    
  1.1965      1.1965      1.2323      1.3064      1.4242      1.5931      1.8234      2.1276      2.5216      3.0242    
  3.6563      4.4401      5.3959      6.5394      7.8783      9.4092      11.115      12.964      16.103      18.037    
  19.848      21.423      22.651      23.433      23.702      23.433      22.651      21.423      19.848      18.037    
  16.103      14.150      12.263      10.493      8.8780      7.4398      6.1887      5.1246      4.2381      3.5130    
  2.9293      2.4659      2.1029      1.8234      1.6130      1.4608      1.3581      1.2990      1.2797      1.2990    
  1.3581      1.4608      1.6130      1.8234      2.1029      2.4659      2.9293      3.5130      4.2381      5.1246    
  6.1887      7.4398      8.8780      10.493      12.263      14.150      17.093      18.892      20.519      21.871    
  22.846      23.357      23.357      22.846      21.871      20.519      18.892      17.093      15.219      13.353    
  11.571      9.9178      8.4171      7.0835      5.9239      4.9372      4.1145      3.4408      2.8976      2.4659    
  2.1276      1.8676      1.6735      1.5358      1.4478      1.4049      1.4049      1.4478      1.5358      1.6735    
  1.8676      2.1276      2.4659      2.8976      3.4408      4.1145      4.9372      5.9239      7.0835      8.4171    
  9.9178      11.571      13.353      15.219      17.636      19.178      20.525      21.584      22.265      22.501    
  22.265      21.584      20.525      19.178      17.636      15.977      14.269      12.570      10.942      9.4323    
  8.0582      6.8313      5.7588      4.8414      4.0728      3.4408      2.9293      2.5216      2.2021      1.9573    
  1.7769      1.6531      1.5809      1.5571      1.5809      1.6531      1.7769      1.9573      2.2021      2.5216    
  2.9293      3.4408      4.0728      4.8414      5.7588      6.8313      8.0582      9.4323      10.942      12.570    
  14.269      15.977      17.479      18.651      19.635      20.356      20.739      20.739      20.356      19.635    
  18.651      17.479      16.179      14.792      13.346      11.877      10.436      9.0793      7.8298      6.7005    
  5.7026      4.8414      4.1145      3.5130      3.0242      2.6335      2.3275      2.0949      1.9270      1.8180    
  1.7643      1.7643      1.8180      1.9270      2.0949      2.3275      2.6335      3.0242      3.5130      4.1145    
  4.8414      5.7026      6.7005      7.8298      9.0793      10.436      11.877      13.346      14.792      16.179    
  16.412      17.121      17.693      18.070      18.203      18.070      17.693      17.121      16.412      15.601    
  14.695      13.685      12.565      11.354      10.106      8.8932      7.7513      6.7005      5.7588      4.9372    
  4.2381      3.6563      3.1816      2.8019      2.5056      2.2835      2.1287      2.0372      2.0069      2.0372    
  2.1287      2.2835      2.5056      2.8019      3.1816      3.6563      4.2381      4.9372      5.7588      6.7005    
  7.7513      8.8932      10.106      11.354      12.565      13.685      14.695      15.601      14.314      14.509    
  14.666      14.758      14.758      14.666      14.509      14.314      14.090      13.805      13.403      12.824    
  12.040      11.073      9.9915      8.8932      7.8298      6.8313      5.9239      5.1246      4.4401      3.8681    
  3.4005      3.0273      2.7387      2.5272      2.3881      2.3191      2.3191      2.3881      2.5272      2.7387    
  3.0273      3.4005      3.8681      4.4401      5.1246      5.9239      6.8313      7.8298      8.8932      9.9915    
  11.073      12.040      12.824      13.403      13.805      14.090      11.206      10.895      10.709      10.649    
  10.709      10.895      11.206      11.614      12.045      12.387      12.519      12.352      11.855      11.073    
  10.106      9.0793      8.0582      7.0835      6.1887      5.3959      4.7147      4.1447      3.6795      3.3103    
  3.0294      2.8312      2.7129      2.6736      2.7129      2.8312      3.0294      3.3103      3.6795      4.1447    
  4.7147      5.3959      6.1887      7.0835      8.0582      9.0793      10.106      11.073      11.855      12.352    
  12.519      12.387      12.045      11.614      7.2861      6.5600      6.1848      6.1848      6.5600      7.2861    
  8.2975      9.4723      10.638      11.603      12.205      12.352      12.040      11.354      10.436      9.4323    
  8.4171      7.4398      6.5394      5.7409      5.0550      4.4824      4.0172      3.6523      3.3817      3.2021    
  3.1123      3.1123      3.2021      3.3817      3.6523      4.0172      4.4824      5.0550      5.7409      6.5394    
  7.4398      8.4171      9.4323      10.436      11.354      12.040      12.352      12.205      11.603      10.638    
  9.4723      8.2975      2.9371      1.9759      1.6457      1.9759      2.9371      4.4337      6.2955      8.2854    
  10.136      11.603      12.519      12.824      12.565      11.877      10.942      9.9178      8.8780      7.8783    
  6.9601      6.1486      5.4544      4.8777      4.4134      4.0559      3.8012      3.6482      3.5971      3.6482    
  3.8012      4.0559      4.4134      4.8777      5.4544      6.1486      6.9601      7.8783      8.8780      9.9178    
  10.942      11.877      12.565      12.824      12.519      11.603      10.136      8.2854      6.2955      4.4337    
 -1.3155     -2.2542     -2.2542     -1.3154     0.45775      2.8563      5.5813      8.2854      10.638      12.387    
  13.403      13.685      13.346      12.570      11.571      10.493      9.4092      8.3764      7.4354      6.6094    
  5.9073      5.3287      4.8691      4.5249      4.2947      4.1791      4.1791      4.2947      4.5249      4.8691    
  5.3287      5.9073      6.6094      7.4354      8.3764      9.4092      10.493      11.571      12.570      13.346    
  13.685      13.403      12.387      10.638      8.2854      5.5812      2.8563     0.45774     -4.8936     -5.5090    
 -4.8936     -3.1239     -.42430      2.8563      6.2955      9.4723      12.045      13.805      14.695      14.792    
  14.269      13.353      12.263      11.115      9.9809      8.9144      7.9528      7.1158      6.4101      5.8347    
  5.3865      5.0646      4.8700      4.8047      4.8700      5.0646      5.3865      5.8347      6.4101      7.1158    
  7.9528      8.9144      9.9809      11.115      12.263      13.353      14.269      14.792      14.695      13.805    
  12.045      9.4723      6.2955      2.8563     -.42432     -3.1239     -7.2793     -7.2793     -5.8272     -3.1239    
 0.45774      4.4337      8.2975      11.614      14.090      15.601      16.179      15.977      15.219      14.150    
  12.964      11.748      10.569      9.4772      8.5030      7.6624      6.9600      6.3952      5.9676      5.6793    
  5.5338      5.5338      5.6793      5.9676      6.3952      6.9600      7.6624      8.5030      9.4772      10.569    
  11.748      12.964      14.150      15.219      15.977      16.179      15.601      14.090      11.614      8.2975    
  4.4337     0.45774     -3.1239     -5.8272     -7.2793     -5.5090     -2.2542      1.9759      6.5600      10.895    
  14.509      17.121      18.651      19.178      18.892      18.037      16.868      15.577      14.251      12.954    
  11.738      10.637      9.6721      8.8519      8.1819      7.6676      7.3170      7.1389      7.1389      7.3170    
  7.6676      8.1819      8.8520      9.6721      10.637      11.738      12.954      14.251      15.577      16.868    
  18.037      18.892      19.178      18.651      17.121      14.509      10.895      6.5600      1.9759     -2.2542    
 -5.5090     -7.2793     -5.5090     -2.7922      1.2210      5.8907      10.544      14.616      17.733      19.742    
  20.674      20.692      20.029      18.941      17.660      16.305      14.944      13.634      12.419      11.325    
  10.371      9.5659      8.9193      8.4429      8.1498      8.0507      8.1498      8.4429      8.9193      9.5659    
  10.371      11.325      12.419      13.634      14.944      16.305      17.660      18.941      20.029      20.692    
  20.674      19.742      17.733      14.616      10.544      5.8907      1.2210     -2.7922     -5.5090     -6.4702    
 -2.2542      1.2210      5.6620      10.369      14.700      18.194      20.613      21.930      22.266      21.837    
  20.889      19.667      18.329      16.949      15.586      14.286      13.087      12.011      11.075      10.292    
  9.6797      9.2561      9.0389      9.0389      9.2561      9.6797      10.292      11.075      12.011      13.087    
  14.286      15.586      16.949      18.329      19.667      20.889      21.837      22.266      21.930      20.613    
  18.194      14.700      10.369      5.6620      1.2210     -2.2542     -4.1647     -4.1647      1.9759      5.8907    