Band structure                          
   1.00000000000000     
     0.000000    2.729500    2.729500
     2.729500    0.000000    2.729500
     2.729500    2.729500    0.000000
   Si
     2
Direct
  0.000000  0.000000  0.000000
  0.250000  0.250000  0.250000
 
   48   48   48
 -.81166010473E+01 -.72792760054E+01 -.48935937189E+01 -.13154594064E+01 0.29370633729E+01
 0.72860525077E+01 0.11206228247E+02 0.14314394690E+02 0.16411971066E+02 0.17478960022E+02
 0.17635839612E+02 0.17093360919E+02 0.16102933942E+02 0.14905073995E+02 0.13635065505E+02
 0.12366470900E+02 0.11158693046E+02 0.10054315202E+02 0.90787861515E+01 0.82437700094E+01
 0.75529733896E+01 0.70080696007E+01 0.66124111596E+01 0.63714310358E+01 0.62903780627E+01
 0.63714298672E+01 0.66124098477E+01 0.70080693687E+01 0.75529746255E+01 0.82437718929E+01
 0.90787873353E+01 0.10054314996E+02 0.11158692001E+02 0.12366470229E+02 0.13635065879E+02
 0.14905074845E+02 0.16102933909E+02 0.17093359113E+02 0.17635836746E+02 0.17478958505E+02
 0.16411973738E+02 0.14314402808E+02 0.11206240138E+02 0.72860641301E+01 0.29370706841E+01
 -.13154579085E+01 -.48935961699E+01 -.72792786732E+01 -.72792760054E+01 -.55090174869E+01
 -.22542423300E+01 0.19759106739E+01 0.65600164256E+01 0.10895135704E+02 0.14508772326E+02
 0.17121237920E+02 0.18650921823E+02 0.19178157973E+02 0.18891910377E+02 0.18036992172E+02
 0.16868350745E+02 0.15577352323E+02 0.14250808298E+02 0.12953900670E+02 0.11737727074E+02
 0.10637167903E+02 0.96720915201E+01 0.88519492044E+01 0.81818677957E+01 0.76675587702E+01
 0.73170460772E+01 0.71389486906E+01 0.71389479829E+01 0.73170445359E+01 0.76675576448E+01
 0.81818679735E+01 0.88519505434E+01 0.96720930362E+01 0.10637168575E+02 0.11737726632E+02
 0.12953899790E+02 0.14250808005E+02 0.15577352983E+02 0.16868351523E+02 0.18036991615E+02
 0.18891907828E+02 0.19178154602E+02 0.18650920295E+02 0.17121240840E+02 0.14508780626E+02
 0.10895148043E+02 0.65600298871E+01 0.19759222494E+01 -.22542343952E+01 -.55090132949E+01
 -.72792747621E+01 -.48935937189E+01 -.22542423300E+01 0.16456441044E+01 0.61848265489E+01
 0.10709228947E+02 0.14666471275E+02 0.17692623394E+02 0.19635306476E+02 0.20524740747E+02
 0.20519163611E+02 0.19847963167E+02 0.18763562152E+02 0.17491759192E+02 0.16147701222E+02
 0.14798778404E+02 0.13501222968E+02 0.12297431205E+02 0.11215258180E+02 0.10270845372E+02
 0.94740910752E+01 0.88342105410E+01 0.83627243814E+01 0.80726149639E+01 0.79745301739E+01
 0.80726140458E+01 0.83627232439E+01 0.88342100423E+01 0.94740915737E+01 0.10270846466E+02
 0.11215259057E+02 0.12297431315E+02 0.13501222463E+02 0.14798777967E+02 0.16147701421E+02
 0.17491759893E+02 0.18763562491E+02 0.19847962147E+02 0.20519160931E+02 0.20524737293E+02
 0.19635304129E+02 0.17692624237E+02 0.14666476651E+02 0.10709238831E+02 0.61848394726E+01
 0.16456575600E+01 -.22542312168E+01 -.48935874395E+01 -.58272397455E+01 -.13154594064E+01
 0.19759106739E+01 0.61848265489E+01 0.10648525594E+02 0.14757994556E+02 0.18070336243E+02
 0.20355909085E+02 0.21583903625E+02 0.21871352158E+02 0.21423284153E+02 0.20480700011E+02
 0.19278201035E+02 0.17964766279E+02 0.16610449951E+02 0.15273289987E+02 0.14000376100E+02
 0.12826076552E+02 0.11773126305E+02 0.10856938918E+02 0.10091215186E+02 0.94919157408E+01
 0.90774415747E+01 0.88649471660E+01 0.88649471009E+01 0.90774413585E+01 0.94919154409E+01
 0.10091215063E+02 0.10856939185E+02 0.11773126842E+02 0.12826077041E+02 0.14000376396E+02
 0.15273290194E+02 0.16610450163E+02 0.17964766474E+02 0.19278201207E+02 0.20480700100E+02
 0.21423283701E+02 0.21871350360E+02 0.21583900155E+02 0.20355904966E+02 0.18070333727E+02
 0.14757995973E+02 0.10648532079E+02 0.61848373225E+01 0.19759230017E+01 -.13154495089E+01
 -.31239148362E+01 -.31239186370E+01 0.29370633729E+01 0.65600164256E+01 0.10709228947E+02
 0.14757994556E+02 0.18203156724E+02 0.20739090989E+02 0.22265170061E+02 0.22845670906E+02
 0.22650974961E+02 0.21902054238E+02 0.20826904360E+02 0.19598077379E+02 0.18292089723E+02
 0.16966303742E+02 0.15669508090E+02 0.14440175194E+02 0.13306364560E+02 0.12288773761E+02
 0.11405957913E+02 0.10678944691E+02 0.10132443371E+02 0.97915717358E+01 0.96755375905E+01
 0.97915721235E+01 0.10132443813E+02 0.10678944799E+02 0.11405957638E+02 0.12288773549E+02
 0.13306365014E+02 0.14440176469E+02 0.15669509650E+02 0.16966304790E+02 0.18292089916E+02
 0.19598077116E+02 0.20826904382E+02 0.21902054890E+02 0.22650975711E+02 0.22845670528E+02
 0.22265167514E+02 0.20739086515E+02 0.18203152318E+02 0.14757993123E+02 0.10709232451E+02
 0.65600242939E+01 0.29370724041E+01 0.45774939244E+00 -.42430285671E+00 0.45774341702E+00
 0.72860525077E+01 0.10895135704E+02 0.14666471275E+02 0.18070336243E+02 0.20739090989E+02
 0.22500696056E+02 0.23357130262E+02 0.23433115489E+02 0.22920102500E+02 0.22029536127E+02
 0.20941635982E+02 0.19741080827E+02 0.18483177434E+02 0.17215889440E+02 0.15979008154E+02
 0.14803683480E+02 0.13714530175E+02 0.12734327183E+02 0.11889036398E+02 0.11210009019E+02
 0.10731383046E+02 0.10483192535E+02 0.10483192867E+02 0.10731383841E+02 0.11210009715E+02
 0.11889036415E+02 0.12734326615E+02 0.13714530020E+02 0.14803684778E+02 0.15979010814E+02
 0.17215892183E+02 0.18483178961E+02 0.19741080909E+02 0.20941635462E+02 0.22029536172E+02
 0.22920103851E+02 0.23433117909E+02 0.23357132370E+02 0.22500696068E+02 0.20739088309E+02
 0.18070332502E+02 0.14666469396E+02 0.10895137559E+02 0.72860573252E+01 0.44337213868E+01
 0.28563477266E+01 0.28563456827E+01 0.44337164737E+01 0.11206228247E+02 0.14508772326E+02
 0.17692623394E+02 0.20355909085E+02 0.22265170061E+02 0.23357130262E+02 0.23701934141E+02
 0.23451850852E+02 0.22793266750E+02 0.21899433940E+02 0.20859705733E+02 0.19726737322E+02
 0.18545890845E+02 0.17355676044E+02 0.16187604277E+02 0.15067879930E+02 0.14021739944E+02
 0.13078834259E+02 0.12276479991E+02 0.11658026113E+02 0.11265828093E+02 0.11131229778E+02
 0.11265829179E+02 0.11658027317E+02 0.12276480301E+02 0.13078833569E+02 0.14021739197E+02
 0.15067880420E+02 0.16187606690E+02 0.17355679882E+02 0.18545894596E+02 0.19726739408E+02
 0.20859705686E+02 0.21899432875E+02 0.22793266597E+02 0.23451852885E+02 0.23701938039E+02
 0.23357134431E+02 0.22265172830E+02 0.20355909830E+02 0.17692622856E+02 0.14508771993E+02
 0.11206229189E+02 0.82974977666E+01 0.62955278052E+01 0.55812527979E+01 0.62955261748E+01
 0.82974957919E+01 0.14314394690E+02 0.17121237920E+02 0.19635306476E+02 0.21583903625E+02
 0.22845670906E+02 0.23433115489E+02 0.23451850852E+02 0.23055227220E+02 0.22398202397E+02
 0.21566880178E+02 0.20610622463E+02 0.19571004305E+02 0.18483177435E+02 0.17376340434E+02
 0.16275469640E+02 0.15205582582E+02 0.14197594612E+02 0.13292789959E+02 0.12542561942E+02
 0.12001854596E+02 0.11717810449E+02 0.11717811177E+02 0.12001856002E+02 0.12542562545E+02
 0.13292789115E+02 0.14197593077E+02 0.15205581809E+02 0.16275470817E+02 0.17376343900E+02
 0.18483182390E+02 0.19571008943E+02 0.20610624916E+02 0.21566879889E+02 0.22398200621E+02
 0.23055226054E+02 0.23451851784E+02 0.23433118773E+02 0.22845675823E+02 0.21583908935E+02
 0.19635310842E+02 0.17121240542E+02 0.14314395768E+02 0.11614079400E+02 0.94723231507E+01
 0.82854133947E+01 0.82854132531E+01 0.94723228717E+01 0.11614079016E+02 0.16411971066E+02
 0.18650921823E+02 0.20524740747E+02 0.21871352158E+02 0.22650974961E+02 0.22920102500E+02
 0.22793266750E+02 0.22398202397E+02 0.21808877208E+02 0.21069970267E+02 0.20218283253E+02
 0.19284095491E+02 0.18292089723E+02 0.17263298074E+02 0.16219475948E+02 0.15189544285E+02
 0.14215475121E+02 0.13353901584E+02 0.12670771103E+02 0.12229380908E+02 0.12076469598E+02
 0.12229381475E+02 0.12670771534E+02 0.13353900997E+02 0.14215473255E+02 0.15189542008E+02
 0.16219474914E+02 0.17263299659E+02 0.18292094064E+02 0.19284101328E+02 0.20218288552E+02
 0.21069973130E+02 0.21808876733E+02 0.22398199220E+02 0.22793262918E+02 0.22920100469E+02
 0.22650976244E+02 0.21871356573E+02 0.20524746750E+02 0.18650927505E+02 0.16411975048E+02
 0.14089930287E+02 0.12045033413E+02 0.10637750760E+02 0.10135680292E+02 0.10637751023E+02
 0.12045033127E+02 0.14089928418E+02 0.17478960022E+02 0.19178157973E+02 0.20519163611E+02
 0.21423284153E+02 0.21902054238E+02 0.22029536127E+02 0.21899433940E+02 0.21566880178E+02
 0.21069970267E+02 0.20439641197E+02 0.19700198663E+02 0.18870254030E+02 0.17964766279E+02
 0.16999490021E+02 0.15997933920E+02 0.14998700860E+02 0.14058976025E+02 0.13250274518E+02
 0.12651483411E+02 0.12331832590E+02 0.12331832678E+02 0.12651483498E+02 0.13250274045E+02
 0.14058974305E+02 0.14998697829E+02 0.15997930724E+02 0.16999488557E+02 0.17964767939E+02
 0.18870258800E+02 0.19700205159E+02 0.20439647249E+02 0.21069973642E+02 0.21566879470E+02
 0.21899429462E+02 0.22029530004E+02 0.21902049297E+02 0.21423282380E+02 0.20519165360E+02
 0.19178162197E+02 0.17478964968E+02 0.15600799891E+02 0.13805281709E+02 0.12386944591E+02
 0.11602765292E+02 0.11602765289E+02 0.12386944041E+02 0.13805279607E+02 0.15600795922E+02
 0.17635839612E+02 0.18891910377E+02 0.19847963167E+02 0.20480700011E+02 0.20826904360E+02
 0.20941635982E+02 0.20859705733E+02 0.20610622463E+02 0.20218283253E+02 0.19700198663E+02
 0.19067982158E+02 0.18329218208E+02 0.17491759192E+02 0.16570894837E+02 0.15597819954E+02
 0.14623021457E+02 0.13718445667E+02 0.12975185327E+02 0.12484041325E+02 0.12312087892E+02
 0.12484041809E+02 0.12975185427E+02 0.13718444357E+02 0.14623018364E+02 0.15597815700E+02
 0.16570890871E+02 0.17491757272E+02 0.18329219666E+02 0.19067987135E+02 0.19700205799E+02
 0.20218290148E+02 0.20610626693E+02 0.20859705824E+02 0.20941631936E+02 0.20826897649E+02
 0.20480693044E+02 0.19847958281E+02 0.18891908792E+02 0.17635841015E+02 0.16179333079E+02
 0.14695279654E+02 0.13402752670E+02 0.12519174212E+02 0.12204946446E+02 0.12519172905E+02
 0.13402750181E+02 0.14695276407E+02 0.16179330030E+02 0.17093360919E+02 0.18036992172E+02
 0.18763562152E+02 0.19278201035E+02 0.19598077379E+02 0.19741080827E+02 0.19726737322E+02
 0.19571004305E+02 0.19284095491E+02 0.18870254030E+02 0.18329218208E+02 0.17660105617E+02
 0.16868350746E+02 0.15974427953E+02 0.15016541364E+02 0.14060841291E+02 0.13203383723E+02
 0.12551668022E+02 0.12198791568E+02 0.12198792071E+02 0.12551668939E+02 0.13203383735E+02
 0.14060839330E+02 0.15016537322E+02 0.15974422792E+02 0.16868346155E+02 0.17660103433E+02
 0.18329219674E+02 0.18870259161E+02 0.19284102948E+02 0.19571011914E+02 0.19726742896E+02
 0.19741082854E+02 0.19598075422E+02 0.19278195854E+02 0.18763555453E+02 0.18036985978E+02
 0.17093356832E+02 0.15977424072E+02 0.14791780432E+02 0.13685276383E+02 0.12823994661E+02
 0.12351642288E+02 0.12351641203E+02 0.12823992004E+02 0.13685273610E+02 0.14791779131E+02
 0.15977425336E+02 0.16102933942E+02 0.16868350745E+02 0.17491759192E+02 0.17964766279E+02
 0.18292089723E+02 0.18483177434E+02 0.18545890845E+02 0.18483177435E+02 0.18292089723E+02
 0.17964766279E+02 0.17491759192E+02 0.16868350746E+02 0.16102933942E+02 0.15218723769E+02
 0.14269078172E+02 0.13345966787E+02 0.12565118765E+02 0.12040429621E+02 0.11855327956E+02
 0.12040430975E+02 0.12565120353E+02 0.13345966996E+02 0.14269075878E+02 0.15218719105E+02
 0.16102928326E+02 0.16868346150E+02 0.17491757227E+02 0.17964767664E+02 0.18292094247E+02
 0.18483184162E+02 0.18545898364E+02 0.18483184162E+02 0.18292094247E+02 0.17964767663E+02
 0.17491757227E+02 0.16868346150E+02 0.16102928326E+02 0.15218719105E+02 0.14269075878E+02
 0.13345966997E+02 0.12565120353E+02 0.12040430975E+02 0.11855327956E+02 0.12040429621E+02
 0.12565118765E+02 0.13345966787E+02 0.14269078172E+02 0.15218723769E+02 0.14905073995E+02
 0.15577352323E+02 0.16147701222E+02 0.16610449951E+02 0.16966303742E+02 0.17215889440E+02
 0.17355676044E+02 0.17376340434E+02 0.17263298074E+02 0.16999490021E+02 0.16570894837E+02
 0.15974427953E+02 0.15218723769E+02 0.14338918744E+02 0.13413829263E+02 0.12556772612E+02
 0.11893001423E+02 0.11530058545E+02 0.11530059759E+02 0.11893004193E+02 0.12556774953E+02
 0.13413829408E+02 0.14338916132E+02 0.15218719153E+02 0.15974422848E+02 0.16570890782E+02
 0.16999488033E+02 0.17263298479E+02 0.17376343104E+02 0.17355680720E+02 0.17215895719E+02
 0.16966310753E+02 0.16610456252E+02 0.16147705285E+02 0.15577353311E+02 0.14905072194E+02
 0.14150471181E+02 0.13352962130E+02 0.12570403159E+02 0.11876924288E+02 0.11354292830E+02
 0.11072714624E+02 0.11072714491E+02 0.11354292823E+02 0.11876925224E+02 0.12570405528E+02
 0.13352965587E+02 0.14150474567E+02 0.13635065505E+02 0.14250808298E+02 0.14798778404E+02
 0.15273289987E+02 0.15669508090E+02 0.15979008154E+02 0.16187604277E+02 0.16275469640E+02
 0.16219475948E+02 0.15997933920E+02 0.15597819954E+02 0.15016541364E+02 0.14269078172E+02
 0.13413829263E+02 0.12550987075E+02 0.11805190190E+02 0.11298059543E+02 0.11118205014E+02
 0.11298061899E+02 0.11805193495E+02 0.12550989410E+02 0.13413829310E+02 0.14269075811E+02
 0.15016537496E+02 0.15597815825E+02 0.15997930471E+02 0.16219473568E+02 0.16275468392E+02
 0.16187604305E+02 0.15979009817E+02 0.15669511663E+02 0.15273295182E+02 0.14798784205E+02
 0.14250813300E+02 0.13635068553E+02 0.12964032095E+02 0.12262595313E+02 0.11570865566E+02
 0.10942156335E+02 0.10435760746E+02 0.10106089245E+02 0.99915412062E+01 0.10106089833E+02
 0.10435762046E+02 0.10942158287E+02 0.11570867623E+02 0.12262596491E+02 0.12964031394E+02
 0.12366470900E+02 0.12953900670E+02 0.13501222968E+02 0.14000376100E+02 0.14440175194E+02
 0.14803683480E+02 0.15067879930E+02 0.15205582582E+02 0.15189544285E+02 0.14998700860E+02
 0.14623021457E+02 0.14060841291E+02 0.13345966787E+02 0.12556772612E+02 0.11805190190E+02
 0.11214054104E+02 0.10888279617E+02 0.10888280566E+02 0.11214056601E+02 0.11805193172E+02
 0.12556774610E+02 0.13345966775E+02 0.14060839408E+02 0.14623018722E+02 0.14998698162E+02
 0.15189541769E+02 0.15205579969E+02 0.15067877126E+02 0.14803680812E+02 0.14440173318E+02
 0.14000375820E+02 0.13501224841E+02 0.12953904428E+02 0.12366475306E+02 0.11748346822E+02
 0.11115295698E+02 0.10493079276E+02 0.99178102651E+01 0.94323228714E+01 0.90793041216E+01
 0.88931911144E+01 0.88931916312E+01 0.90793053577E+01 0.94323241620E+01 0.99178110044E+01
 0.10493078943E+02 0.11115293796E+02 0.11748343262E+02 0.11158693046E+02 0.11737727074E+02
 0.12297431205E+02 0.12826076552E+02 0.13306364560E+02 0.13714530175E+02 0.14021739944E+02
 0.14197594612E+02 0.14215475121E+02 0.14058976025E+02 0.13718445667E+02 0.13203383723E+02
 0.12565118765E+02 0.11893001423E+02 0.11298059543E+02 0.10888279617E+02 0.10742126449E+02
 0.10888281141E+02 0.11298061877E+02 0.11893003536E+02 0.12565119855E+02 0.13203383597E+02
 0.13718444731E+02 0.14058974893E+02 0.14215474101E+02 0.14197593436E+02 0.14021737968E+02
 0.13714526934E+02 0.13306360259E+02 0.12826072127E+02 0.12297427903E+02 0.11737725834E+02
 0.11158694052E+02 0.10569489783E+02 0.99809051000E+01 0.94092226312E+01 0.88780456922E+01
 0.84171012076E+01 0.80582173900E+01 0.78297676048E+01 0.77512980445E+01 0.78297685234E+01
 0.80582185652E+01 0.84171016908E+01 0.88780447850E+01 0.94092202943E+01 0.99809020359E+01
 0.10569487168E+02 0.10054315202E+02 0.10637167903E+02 0.11215258180E+02 0.11773126305E+02
 0.12288773761E+02 0.12734327183E+02 0.13078834259E+02 0.13292789959E+02 0.13353901584E+02
 0.13250274518E+02 0.12975185327E+02 0.12551668022E+02 0.12040429621E+02 0.11530058545E+02
 0.11118205014E+02 0.10888280566E+02 0.10888281141E+02 0.11118206329E+02 0.11530059836E+02
 0.12040430490E+02 0.12551668504E+02 0.12975185514E+02 0.13250274540E+02 0.13353901823E+02
 0.13292790767E+02 0.13078835286E+02 0.12734327323E+02 0.12288772013E+02 0.11773122604E+02
 0.11215253363E+02 0.10637163191E+02 0.10054311828E+02 0.94771609503E+01 0.89143715562E+01
 0.83764478638E+01 0.78783286689E+01 0.74397954356E+01 0.70834888374E+01 0.68313108544E+01
 0.67004966888E+01 0.67004970278E+01 0.68313117108E+01 0.70834896176E+01 0.74397952414E+01
 0.78783270949E+01 0.83764457161E+01 0.89143704511E+01 0.94771620792E+01 0.90787861515E+01
 0.96720915201E+01 0.10270845372E+02 0.10856938918E+02 0.11405957913E+02 0.11889036398E+02
 0.12276479991E+02 0.12542561942E+02 0.12670771103E+02 0.12651483411E+02 0.12484041325E+02
 0.12198791568E+02 0.11855327956E+02 0.11530059759E+02 0.11298061899E+02 0.11214056601E+02
 0.11298061877E+02 0.11530059836E+02 0.11855328183E+02 0.12198791820E+02 0.12484041455E+02
 0.12651483522E+02 0.12670771640E+02 0.12542563465E+02 0.12276482728E+02 0.11889039877E+02
 0.11405960959E+02 0.10856940147E+02 0.10270843986E+02 0.96720878862E+01 0.90787816762E+01
 0.85029720470E+01 0.79527566777E+01 0.74353909617E+01 0.69601008443E+01 0.65394443288E+01
 0.61887351255E+01 0.59239086301E+01 0.57587805463E+01 0.57026492723E+01 0.57587812942E+01
 0.59239095130E+01 0.61887354258E+01 0.65394438363E+01 0.69601001189E+01 0.74353910651E+01
 0.79527585180E+01 0.85029757051E+01 0.82437700094E+01 0.88519492044E+01 0.94740910752E+01
 0.10091215186E+02 0.10678944691E+02 0.11210009019E+02 0.11658026113E+02 0.12001854596E+02
 0.12229380908E+02 0.12331832590E+02 0.12312087892E+02 0.12198792071E+02 0.12040430975E+02
 0.11893004193E+02 0.11805193495E+02 0.11805193172E+02 0.11893003536E+02 0.12040430490E+02
 0.12198791820E+02 0.12312087575E+02 0.12331832130E+02 0.12229380668E+02 0.12001855100E+02
 0.11658027840E+02 0.11210012348E+02 0.10678949534E+02 0.10091220474E+02 0.94740949975E+01
 0.88519504017E+01 0.82437685626E+01 0.76624283283E+01 0.71158454977E+01 0.66093966112E+01
 0.61485854536E+01 0.57408572870E+01 0.53959159002E+01 0.51246288710E+01 0.49371981132E+01
 0.48414018361E+01 0.48414023528E+01 0.49371991528E+01 0.51246295283E+01 0.53959159234E+01
 0.57408572754E+01 0.61485861914E+01 0.66093984686E+01 0.71158482637E+01 0.76624311449E+01
 0.75529733896E+01 0.81818677957E+01 0.88342105410E+01 0.94919157408E+01 0.10132443371E+02
 0.10731383046E+02 0.11265828093E+02 0.11717810449E+02 0.12076469598E+02 0.12331832678E+02
 0.12484041809E+02 0.12551668939E+02 0.12565120353E+02 0.12556774953E+02 0.12550989410E+02
 0.12556774610E+02 0.12565119855E+02 0.12551668504E+02 0.12484041455E+02 0.12331832130E+02
 0.12076468527E+02 0.11717808925E+02 0.11265826838E+02 0.10731383156E+02 0.10132445651E+02
 0.94919201211E+01 0.88342159836E+01 0.81818727339E+01 0.75529764812E+01 0.69599752514E+01
 0.64101335647E+01 0.59073260959E+01 0.54543831988E+01 0.50550250818E+01 0.47146838620E+01
 0.44400959820E+01 0.42381208695E+01 0.41144706344E+01 0.40728333582E+01 0.41144709349E+01
 0.42381212916E+01 0.44400963490E+01 0.47146842278E+01 0.50550257630E+01 0.54543844547E+01
 0.59073276628E+01 0.64101345199E+01 0.69599744685E+01 0.70080696007E+01 0.76675587702E+01
 0.83627243814E+01 0.90774415747E+01 0.97915717358E+01 0.10483192535E+02 0.11131229778E+02
 0.11717811177E+02 0.12229381475E+02 0.12651483498E+02 0.12975185427E+02 0.13203383735E+02
 0.13345966996E+02 0.13413829408E+02 0.13413829310E+02 0.13345966775E+02 0.13203383597E+02
 0.12975185514E+02 0.12651483522E+02 0.12229380668E+02 0.11717808925E+02 0.11131226358E+02
 0.10483189102E+02 0.97915695650E+01 0.90774413991E+01 0.83627262935E+01 0.76675623252E+01
 0.70080738224E+01 0.63951630227E+01 0.58346552534E+01 0.53286746692E+01 0.48776798542E+01
 0.44823588267E+01 0.41447075429E+01 0.38680547642E+01 0.36563144217E+01 0.35130401031E+01
 0.34407663140E+01 0.34407660751E+01 0.35130396435E+01 0.36563142134E+01 0.38680550230E+01
 0.41447081653E+01 0.44823595790E+01 0.48776803373E+01 0.53286742009E+01 0.58346531928E+01
 0.63951594159E+01 0.66124111596E+01 0.73170460772E+01 0.80726149639E+01 0.88649471660E+01
 0.96755375905E+01 0.10483192867E+02 0.11265829179E+02 0.12001856002E+02 0.12670771534E+02
 0.13250274045E+02 0.13718444357E+02 0.14060839330E+02 0.14269075878E+02 0.14338916132E+02
 0.14269075811E+02 0.14060839408E+02 0.13718444731E+02 0.13250274540E+02 0.12670771640E+02
 0.12001855100E+02 0.11265826838E+02 0.10483189102E+02 0.96755329826E+01 0.88649427454E+01
 0.80726118441E+01 0.73170449909E+01 0.66124121554E+01 0.59676337331E+01 0.53865505307E+01
 0.48691496205E+01 0.44134265325E+01 0.40172320469E+01 0.36794953765E+01 0.34005345026E+01
 0.31816060987E+01 0.30241651541E+01 0.29293134642E+01 0.28976392360E+01 0.29293130077E+01
 0.30241645431E+01 0.31816057501E+01 0.34005346290E+01 0.36794957329E+01 0.40172319944E+01
 0.44134254507E+01 0.48691473818E+01 0.53865476829E+01 0.59676312898E+01 0.63714310358E+01
 0.71389486906E+01 0.79745301739E+01 0.88649471009E+01 0.97915721235E+01 0.10731383841E+02
 0.11658027317E+02 0.12542562545E+02 0.13353900997E+02 0.14058974305E+02 0.14623018364E+02
 0.15016537322E+02 0.15218719105E+02 0.15218719153E+02 0.15016537496E+02 0.14623018722E+02
 0.14058974893E+02 0.13353901823E+02 0.12542563465E+02 0.11658027840E+02 0.10731383156E+02
 0.97915695650E+01 0.88649427454E+01 0.79745249752E+01 0.71389439947E+01 0.63714279213E+01
 0.56793415346E+01 0.50645971208E+01 0.45249507840E+01 0.40558563004E+01 0.36523371816E+01
 0.33103445062E+01 0.30273011840E+01 0.28018955720E+01 0.26334962416E+01 0.25216416713E+01
 0.24658739353E+01 0.24658737669E+01 0.25216412823E+01 0.26334959109E+01 0.28018955159E+01
 0.30273012771E+01 0.33103442592E+01 0.36523361399E+01 0.40558545486E+01 0.45249490541E+01
 0.50645964143E+01 0.56793426236E+01 0.62903780627E+01 0.71389479829E+01 0.80726140458E+01
 0.90774413585E+01 0.10132443813E+02 0.11210009715E+02 0.12276480301E+02 0.13292789115E+02
 0.14215473255E+02 0.14998697829E+02 0.15597815700E+02 0.15974422792E+02 0.16102928326E+02
 0.15974422848E+02 0.15597815825E+02 0.14998698162E+02 0.14215474101E+02 0.13292790767E+02
 0.12276482728E+02 0.11210012348E+02 0.10132445651E+02 0.90774413991E+01 0.80726118441E+01
 0.71389439947E+01 0.62903735215E+01 0.55338223328E+01 0.48699600805E+01 0.42947044521E+01
 0.38011884468E+01 0.33817368006E+01 0.30293872969E+01 0.27386698620E+01 0.25056479294E+01
 0.23275033623E+01 0.22020687429E+01 0.21276135487E+01 0.21029405638E+01 0.21276132589E+01
 0.22020684870E+01 0.23275034381E+01 0.25056482647E+01 0.27386700228E+01 0.30293868588E+01
 0.33817357866E+01 0.38011874902E+01 0.42947045333E+01 0.48699619572E+01 0.55338259988E+01
 0.63714298672E+01 0.73170445359E+01 0.83627232439E+01 0.94919154409E+01 0.10678944799E+02
 0.11889036415E+02 0.13078833569E+02 0.14197593077E+02 0.15189542008E+02 0.15997930724E+02
 0.16570890871E+02 0.16868346155E+02 0.16868346150E+02 0.16570890782E+02 0.15997930471E+02
 0.15189541769E+02 0.14197593436E+02 0.13078835286E+02 0.11889039877E+02 0.10678949534E+02
 0.94919201211E+01 0.83627262935E+01 0.73170449909E+01 0.63714279213E+01 0.55338223328E+01
 0.48047446254E+01 0.41790683555E+01 0.36481786503E+01 0.32020996513E+01 0.28311959705E+01
 0.25271889653E+01 0.22834611781E+01 0.20948547905E+01 0.19573005209E+01 0.18675801504E+01
 0.18233511615E+01 0.18233510691E+01 0.18675799899E+01 0.19573005373E+01 0.20948551157E+01
 0.22834616522E+01 0.25271892228E+01 0.28311957962E+01 0.32020993256E+01 0.36481789130E+01
 0.41790698963E+01 0.48047474393E+01 0.55338254649E+01 0.66124098477E+01 0.76675576448E+01
 0.88342100423E+01 0.10091215063E+02 0.11405957638E+02 0.12734326615E+02 0.14021739197E+02
 0.15205581809E+02 0.16219474914E+02 0.16999488557E+02 0.17491757272E+02 0.17660103433E+02
 0.17491757227E+02 0.16999488033E+02 0.16219473568E+02 0.15205579969E+02 0.14021737968E+02
 0.12734327323E+02 0.11405960959E+02 0.10091220474E+02 0.88342159836E+01 0.76675623252E+01
 0.66124121554E+01 0.56793415346E+01 0.48699600805E+01 0.41790683555E+01 0.35970756651E+01
 0.31123181857E+01 0.27129405554E+01 0.23881283884E+01 0.21286650555E+01 0.19269691093E+01
 0.17768814112E+01 0.16734696827E+01 0.16130078441E+01 0.15931267170E+01 0.16130078328E+01
 0.16734697639E+01 0.17768816619E+01 0.19269694562E+01 0.21286653074E+01 0.23881284296E+01
 0.27129405392E+01 0.31123185168E+01 0.35970766978E+01 0.41790699771E+01 0.48699615076E+01
 0.56793415701E+01 0.70080693687E+01 0.81818679735E+01 0.94740915737E+01 0.10856939185E+02
 0.12288773549E+02 0.13714530020E+02 0.15067880420E+02 0.16275470817E+02 0.17263299659E+02
 0.17964767939E+02 0.18329219666E+02 0.18329219674E+02 0.17964767664E+02 0.17263298479E+02
 0.16275468392E+02 0.15067877126E+02 0.13714526934E+02 0.12288772013E+02 0.10856940147E+02
 0.94740949975E+01 0.81818727339E+01 0.70080738224E+01 0.59676337331E+01 0.50645971208E+01
 0.42947044521E+01 0.36481786503E+01 0.31123181857E+01 0.26735897983E+01 0.23190588670E+01
 0.20371614103E+01 0.18179632695E+01 0.16531311607E+01 0.15358389581E+01 0.14607594153E+01
 0.14241800094E+01 0.14241800051E+01 0.14607594613E+01 0.15358391172E+01 0.16531313429E+01
 0.18179632982E+01 0.20371612496E+01 0.23190587150E+01 0.26735899334E+01 0.31123187191E+01
 0.36481793481E+01 0.42947046906E+01 0.50645960688E+01 0.59676308374E+01 0.75529746255E+01
 0.88519505434E+01 0.10270846466E+02 0.11773126842E+02 0.13306365014E+02 0.14803684778E+02
 0.16187606690E+02 0.17376343900E+02 0.18292094064E+02 0.18870258800E+02 0.19067987135E+02
 0.18870259161E+02 0.18292094247E+02 0.17376343104E+02 0.16187604305E+02 0.14803680812E+02
 0.13306360259E+02 0.11773122604E+02 0.10270843986E+02 0.88519504017E+01 0.75529764812E+01
 0.63951630227E+01 0.53865505307E+01 0.45249507840E+01 0.38011884468E+01 0.32020996513E+01
 0.27129405554E+01 0.23190588670E+01 0.20068667227E+01 0.17642827843E+01 0.15808640574E+01
 0.14478283319E+01 0.13581008559E+01 0.13064347689E+01 0.12895804678E+01 0.13064348792E+01
 0.13581009435E+01 0.14478282436E+01 0.15808637551E+01 0.17642823989E+01 0.20068664834E+01
 0.23190589387E+01 0.27129408663E+01 0.32020998245E+01 0.38011879296E+01 0.45249491733E+01
 0.53865479355E+01 0.63951602081E+01 0.82437718929E+01 0.96720930362E+01 0.11215259057E+02
 0.12826077041E+02 0.14440176469E+02 0.15979010814E+02 0.17355679882E+02 0.18483182390E+02
 0.19284101328E+02 0.19700205159E+02 0.19700205799E+02 0.19284102948E+02 0.18483184162E+02
 0.17355680720E+02 0.15979009817E+02 0.14440173318E+02 0.12826072127E+02 0.11215253363E+02
 0.96720878862E+01 0.82437685626E+01 0.69599752514E+01 0.58346552534E+01 0.48691496205E+01
 0.40558563004E+01 0.33817368006E+01 0.28311959705E+01 0.23881283884E+01 0.20371614103E+01
 0.17642827843E+01 0.15570988570E+01 0.14049410682E+01 0.12989617574E+01 0.12322766028E+01
 0.12001456489E+01 0.12001457872E+01 0.12322768296E+01 0.12989617129E+01 0.14049406045E+01
 0.15570981976E+01 0.17642823441E+01 0.20371614685E+01 0.23881288330E+01 0.28311962555E+01
 0.33817362375E+01 0.40558546344E+01 0.48691474826E+01 0.58346539823E+01 0.69599760949E+01
 0.90787873353E+01 0.10637168575E+02 0.12297431315E+02 0.14000376396E+02 0.15669509650E+02
 0.17215892183E+02 0.18545894596E+02 0.19571008943E+02 0.20218288552E+02 0.20439647249E+02
 0.20218290148E+02 0.19571011914E+02 0.18545898364E+02 0.17215895719E+02 0.15669511663E+02
 0.14000375820E+02 0.12297427903E+02 0.10637163191E+02 0.90787816762E+01 0.76624283283E+01
 0.64101335647E+01 0.53286746692E+01 0.44134265325E+01 0.36523371816E+01 0.30293872969E+01
 0.25271889653E+01 0.21286650555E+01 0.18179632695E+01 0.15808640574E+01 0.14049410682E+01
 0.12796615638E+01 0.11965210122E+01 0.11492275055E+01 0.11339007820E+01 0.11492276623E+01
 0.11965210895E+01 0.12796613281E+01 0.14049405528E+01 0.15808635970E+01 0.18179632305E+01
 0.21286654627E+01 0.25271893689E+01 0.30293870751E+01 0.36523361172E+01 0.44134252133E+01
 0.53286743236E+01 0.64101353475E+01 0.76624325154E+01 0.10054314996E+02 0.11737726632E+02
 0.13501222463E+02 0.15273290194E+02 0.16966304790E+02 0.18483178961E+02 0.19726739408E+02
 0.20610624916E+02 0.21069973130E+02 0.21069973642E+02 0.20610626693E+02 0.19726742896E+02
 0.18483184162E+02 0.16966310753E+02 0.15273295182E+02 0.13501224841E+02 0.11737725834E+02
 0.10054311828E+02 0.85029720470E+01 0.71158454977E+01 0.59073260959E+01 0.48776798542E+01
 0.40172320469E+01 0.33103445062E+01 0.27386698620E+01 0.22834611781E+01 0.19269691093E+01
 0.16531311607E+01 0.14478283319E+01 0.12989617574E+01 0.11965210122E+01 0.11327196118E+01
 0.11021918275E+01 0.11021918660E+01 0.11327196597E+01 0.11965209341E+01 0.12989615124E+01
 0.14478280882E+01 0.16531311871E+01 0.19269694753E+01 0.22834615826E+01 0.27386698583E+01
 0.33103439698E+01 0.40172314338E+01 0.48776799982E+01 0.59073277032E+01 0.71158486556E+01
 0.85029759688E+01 0.11158692001E+02 0.12953899790E+02 0.14798777967E+02 0.16610450163E+02
 0.18292089916E+02 0.19741080909E+02 0.20859705686E+02 0.21566879889E+02 0.21808876733E+02
 0.21566879470E+02 0.20859705824E+02 0.19741082854E+02 0.18292094247E+02 0.16610456252E+02
 0.14798784205E+02 0.12953904428E+02 0.11158694052E+02 0.94771609503E+01 0.79527566777E+01
 0.66093966112E+01 0.54543831988E+01 0.44823588267E+01 0.36794953765E+01 0.30273011840E+01
 0.25056479294E+01 0.20948547905E+01 0.17768814112E+01 0.15358389581E+01 0.13581008559E+01
 0.12322766028E+01 0.11492275055E+01 0.11021918275E+01 0.10869864203E+01 0.11021919197E+01
 0.11492275757E+01 0.12322765526E+01 0.13581007306E+01 0.15358389281E+01 0.17768816003E+01
 0.20948551147E+01 0.25056481360E+01 0.30273011034E+01 0.36794951720E+01 0.44823589784E+01
 0.54543841530E+01 0.66093983120E+01 0.79527583366E+01 0.94771612968E+01 0.12366470229E+02
 0.14250808005E+02 0.16147701421E+02 0.17964766474E+02 0.19598077116E+02 0.20941635462E+02
 0.21899432875E+02 0.22398200621E+02 0.22398199220E+02 0.21899429462E+02 0.20941631936E+02
 0.19598075422E+02 0.17964767663E+02 0.16147705285E+02 0.14250813300E+02 0.12366475306E+02
 0.10569489783E+02 0.89143715562E+01 0.74353909617E+01 0.61485854536E+01 0.50550250818E+01
 0.41447075429E+01 0.34005345026E+01 0.28018955720E+01 0.23275033623E+01 0.19573005209E+01
 0.16734696827E+01 0.14607594153E+01 0.13064347689E+01 0.12001456489E+01 0.11339007820E+01
 0.11021918660E+01 0.11021919197E+01 0.11339008958E+01 0.12001457428E+01 0.13064348199E+01
 0.14607594461E+01 0.16734696928E+01 0.19573004858E+01 0.23275032991E+01 0.28018955642E+01
 0.34005346563E+01 0.41447079356E+01 0.50550256899E+01 0.61485860036E+01 0.74353908217E+01