   2   2   0   0
  0.2033524E+02  0.3860096E-09  0.3860096E-09  0.3860096E-09  0.5000000E-15
  1.000000000000000E-004
  CAR 
 Band structure                          
     17.07690154     -6.94248852  301      6.27818409      1.00000000
     -6.942  0.0000E+00  0.0000E+00
     -6.862  0.0000E+00  0.0000E+00
     -6.782  0.0000E+00  0.0000E+00
     -6.702  0.0000E+00  0.0000E+00
     -6.622  0.0000E+00  0.0000E+00
     -6.542  0.0000E+00  0.0000E+00
     -6.462  0.0000E+00  0.0000E+00
     -6.382  0.0000E+00  0.0000E+00
     -6.302  0.0000E+00  0.0000E+00
     -6.222  0.0000E+00  0.0000E+00
     -6.142  0.0000E+00  0.0000E+00
     -6.062  0.0000E+00  0.0000E+00
     -5.982  0.0000E+00  0.0000E+00
     -5.902  0.1129E-12  0.9040E-14
     -5.822  0.3903E+00  0.3125E-01
     -5.742  0.3750E+01  0.3315E+00
     -5.661  0.1312E+01  0.4688E+00
     -5.581  0.1921E-02  0.4689E+00
     -5.501  0.1405E+02  0.1594E+01
     -5.421  0.1726E+01  0.1732E+01
     -5.341  0.1006E+01  0.1812E+01
     -5.261  0.0000E+00  0.1812E+01
     -5.181  0.9408E-02  0.1813E+01
     -5.101  0.2332E+01  0.2000E+01
     -5.021  0.0000E+00  0.2000E+01
     -4.941  0.0000E+00  0.2000E+01
     -4.861  0.0000E+00  0.2000E+01
     -4.781  0.0000E+00  0.2000E+01
     -4.701  0.0000E+00  0.2000E+01
     -4.621  0.0000E+00  0.2000E+01
     -4.541  0.0000E+00  0.2000E+01
     -4.460  0.0000E+00  0.2000E+01
     -4.380  0.0000E+00  0.2000E+01
     -4.300  0.0000E+00  0.2000E+01
     -4.220  0.0000E+00  0.2000E+01
     -4.140  0.0000E+00  0.2000E+01
     -4.060  0.0000E+00  0.2000E+01
     -3.980  0.0000E+00  0.2000E+01
     -3.900  0.0000E+00  0.2000E+01
     -3.820  0.0000E+00  0.2000E+01
     -3.740  0.0000E+00  0.2000E+01
     -3.660  0.0000E+00  0.2000E+01
     -3.580  0.0000E+00  0.2000E+01
     -3.500  0.0000E+00  0.2000E+01
     -3.420  0.0000E+00  0.2000E+01
     -3.340  0.0000E+00  0.2000E+01
     -3.260  0.0000E+00  0.2000E+01
     -3.179  0.0000E+00  0.2000E+01
     -3.099  0.0000E+00  0.2000E+01
     -3.019  0.0000E+00  0.2000E+01
     -2.939  0.0000E+00  0.2000E+01
     -2.859  0.0000E+00  0.2000E+01
     -2.779  0.0000E+00  0.2000E+01
     -2.699  0.0000E+00  0.2000E+01
     -2.619  0.0000E+00  0.2000E+01
     -2.539  0.0000E+00  0.2000E+01
     -2.459  0.0000E+00  0.2000E+01
     -2.379  0.0000E+00  0.2000E+01
     -2.299  0.0000E+00  0.2000E+01
     -2.219  0.0000E+00  0.2000E+01
     -2.139  0.0000E+00  0.2000E+01
     -2.059  0.0000E+00  0.2000E+01
     -1.978  0.0000E+00  0.2000E+01
     -1.898  0.0000E+00  0.2000E+01
     -1.818  0.0000E+00  0.2000E+01
     -1.738  0.0000E+00  0.2000E+01
     -1.658  0.0000E+00  0.2000E+01
     -1.578  0.0000E+00  0.2000E+01
     -1.498  0.0000E+00  0.2000E+01
     -1.418  0.0000E+00  0.2000E+01
     -1.338  0.0000E+00  0.2000E+01
     -1.258  0.0000E+00  0.2000E+01
     -1.178  0.0000E+00  0.2000E+01
     -1.098  0.0000E+00  0.2000E+01
     -1.018  0.0000E+00  0.2000E+01
     -0.938  0.0000E+00  0.2000E+01
     -0.858  0.0000E+00  0.2000E+01
     -0.778  0.0000E+00  0.2000E+01
     -0.697  0.0000E+00  0.2000E+01
     -0.617  0.0000E+00  0.2000E+01
     -0.537  0.0000E+00  0.2000E+01
     -0.457  0.0000E+00  0.2000E+01
     -0.377  0.0000E+00  0.2000E+01
     -0.297  0.0000E+00  0.2000E+01
     -0.217  0.0000E+00  0.2000E+01
     -0.137  0.0000E+00  0.2000E+01
     -0.057  0.0000E+00  0.2000E+01
      0.023  0.0000E+00  0.2000E+01
      0.103  0.0000E+00  0.2000E+01
      0.183  0.0000E+00  0.2000E+01
      0.263  0.0000E+00  0.2000E+01
      0.343  0.0000E+00  0.2000E+01
      0.423  0.0000E+00  0.2000E+01
      0.504  0.0000E+00  0.2000E+01
      0.584  0.0000E+00  0.2000E+01
      0.664  0.0000E+00  0.2000E+01
      0.744  0.0000E+00  0.2000E+01
      0.824  0.0000E+00  0.2000E+01
      0.904  0.0000E+00  0.2000E+01
      0.984  0.0000E+00  0.2000E+01
      1.064  0.0000E+00  0.2000E+01
      1.144  0.0000E+00  0.2000E+01
      1.224  0.0000E+00  0.2000E+01
      1.304  0.0000E+00  0.2000E+01
      1.384  0.0000E+00  0.2000E+01
      1.464  0.0000E+00  0.2000E+01
      1.544  0.0000E+00  0.2000E+01
      1.624  0.0000E+00  0.2000E+01
      1.704  0.0000E+00  0.2000E+01
      1.785  0.0000E+00  0.2000E+01
      1.865  0.0000E+00  0.2000E+01
      1.945  0.0000E+00  0.2000E+01
      2.025  0.0000E+00  0.2000E+01
      2.105  0.0000E+00  0.2000E+01
      2.185  0.0000E+00  0.2000E+01
      2.265  0.0000E+00  0.2000E+01
      2.345  0.0000E+00  0.2000E+01
      2.425  0.0000E+00  0.2000E+01
      2.505  0.0000E+00  0.2000E+01
      2.585  0.0000E+00  0.2000E+01
      2.665  0.0000E+00  0.2000E+01
      2.745  0.1075E-11  0.2000E+01
      2.825  0.2342E+01  0.2187E+01
      2.905  0.0000E+00  0.2188E+01
      2.986  0.0000E+00  0.2188E+01
      3.066  0.0000E+00  0.2188E+01
      3.146  0.0000E+00  0.2188E+01
      3.226  0.0000E+00  0.2188E+01
      3.306  0.0000E+00  0.2188E+01
      3.386  0.4091E+00  0.2220E+01
      3.466  0.7618E+00  0.2281E+01
      3.546  0.0000E+00  0.2281E+01
      3.626  0.0000E+00  0.2281E+01
      3.706  0.0000E+00  0.2281E+01
      3.786  0.0000E+00  0.2281E+01
      3.866  0.1284E-12  0.2281E+01
      3.946  0.1561E+01  0.2406E+01
      4.026  0.0000E+00  0.2406E+01
      4.106  0.0000E+00  0.2406E+01
      4.186  0.4437E+01  0.2762E+01
      4.267  0.4930E+01  0.3156E+01
      4.347  0.4684E+01  0.3531E+01
      4.427  0.1300E-14  0.3531E+01
      4.507  0.2341E+01  0.3719E+01
      4.587  0.0000E+00  0.3719E+01
      4.667  0.0000E+00  0.3719E+01
      4.747  0.0000E+00  0.3719E+01
      4.827  0.0000E+00  0.3719E+01
      4.907  0.0000E+00  0.3719E+01
      4.987  0.0000E+00  0.3719E+01
      5.067  0.2421E+01  0.3913E+01
      5.147  0.7798E+01  0.4718E+01
      5.227  0.1561E+01  0.5156E+01
      5.307  0.8024E-05  0.5156E+01
      5.387  0.3161E+01  0.5409E+01
      5.468  0.1523E+01  0.5531E+01
      5.548  0.0000E+00  0.5531E+01
      5.628  0.2050E+01  0.5695E+01
      5.708  0.1906E-02  0.5719E+01
      5.788  0.2340E+01  0.5906E+01
      5.868  0.1249E+02  0.6906E+01
      5.948  0.1230E+00  0.6916E+01
      6.028  0.1125E+02  0.7817E+01
      6.108  0.0000E+00  0.7906E+01
      6.188  0.1166E+01  0.8000E+01
      6.268  0.0000E+00  0.8000E+01
      6.348  0.0000E+00  0.8000E+01
      6.428  0.0000E+00  0.8000E+01
      6.508  0.0000E+00  0.8000E+01
      6.588  0.0000E+00  0.8000E+01
      6.668  0.0000E+00  0.8000E+01
      6.749  0.0000E+00  0.8000E+01
      6.829  0.0000E+00  0.8000E+01
      6.909  0.0000E+00  0.8000E+01
      6.989  0.0000E+00  0.8000E+01
      7.069  0.0000E+00  0.8000E+01
      7.149  0.0000E+00  0.8000E+01
      7.229  0.0000E+00  0.8000E+01
      7.309  0.0000E+00  0.8000E+01
      7.389  0.0000E+00  0.8000E+01
      7.469  0.0000E+00  0.8000E+01
      7.549  0.0000E+00  0.8000E+01
      7.629  0.0000E+00  0.8000E+01
      7.709  0.0000E+00  0.8000E+01
      7.789  0.0000E+00  0.8000E+01
      7.869  0.0000E+00  0.8000E+01
      7.950  0.0000E+00  0.8000E+01
      8.030  0.0000E+00  0.8000E+01
      8.110  0.4722E-06  0.8000E+01
      8.190  0.2715E+01  0.8217E+01
      8.270  0.0000E+00  0.8219E+01
      8.350  0.2411E+01  0.8412E+01
      8.430  0.9336E+01  0.9216E+01
      8.510  0.3505E+01  0.9500E+01
      8.590  0.2182E-07  0.9500E+01
      8.670  0.2342E+01  0.9687E+01
      8.750  0.7092E+01  0.1026E+02
      8.830  0.3121E+01  0.1069E+02
      8.910  0.7336E+01  0.1127E+02
      8.990  0.1402E+02  0.1243E+02
      9.070  0.0000E+00  0.1244E+02
      9.151  0.9027E+00  0.1251E+02
      9.231  0.3836E+01  0.1282E+02
      9.311  0.1680E+01  0.1295E+02
      9.391  0.7675E+01  0.1357E+02
      9.471  0.0000E+00  0.1372E+02
      9.551  0.1645E+01  0.1385E+02
      9.631  0.0000E+00  0.1391E+02
      9.711  0.0000E+00  0.1391E+02
      9.791  0.8882E+00  0.1398E+02
      9.871  0.0000E+00  0.1403E+02
      9.951  0.2970E-03  0.1403E+02
     10.031  0.3122E+01  0.1428E+02
     10.111  0.5018E+00  0.1432E+02
     10.191  0.1840E+01  0.1447E+02
     10.271  0.0000E+00  0.1447E+02
     10.351  0.0000E+00  0.1447E+02
     10.432  0.0000E+00  0.1447E+02
     10.512  0.0000E+00  0.1447E+02
     10.592  0.0000E+00  0.1447E+02
     10.672  0.0000E+00  0.1447E+02
     10.752  0.0000E+00  0.1447E+02
     10.832  0.6985E-03  0.1447E+02
     10.912  0.1561E+01  0.1459E+02
     10.992  0.1405E+02  0.1572E+02
     11.072  0.0000E+00  0.1572E+02
     11.152  0.0000E+00  0.1572E+02
     11.232  0.0000E+00  0.1572E+02
     11.312  0.0000E+00  0.1572E+02
     11.392  0.0000E+00  0.1572E+02
     11.472  0.0000E+00  0.1572E+02
     11.552  0.0000E+00  0.1572E+02
     11.633  0.1950E-15  0.1572E+02
     11.713  0.1842E+01  0.1587E+02
     11.793  0.1670E+01  0.1600E+02
     11.873  0.0000E+00  0.1600E+02
     11.953  0.0000E+00  0.1600E+02
     12.033  0.0000E+00  0.1600E+02
     12.113  0.0000E+00  0.1600E+02
     12.193  0.0000E+00  0.1600E+02
     12.273  0.0000E+00  0.1600E+02
     12.353  0.0000E+00  0.1600E+02
     12.433  0.0000E+00  0.1600E+02
     12.513  0.0000E+00  0.1600E+02
     12.593  0.0000E+00  0.1600E+02
     12.673  0.0000E+00  0.1600E+02
     12.753  0.0000E+00  0.1600E+02
     12.833  0.0000E+00  0.1600E+02
     12.914  0.0000E+00  0.1600E+02
     12.994  0.0000E+00  0.1600E+02
     13.074  0.0000E+00  0.1600E+02
     13.154  0.0000E+00  0.1600E+02
     13.234  0.0000E+00  0.1600E+02
     13.314  0.0000E+00  0.1600E+02
     13.394  0.0000E+00  0.1600E+02
     13.474  0.0000E+00  0.1600E+02
     13.554  0.0000E+00  0.1600E+02
     13.634  0.0000E+00  0.1600E+02
     13.714  0.0000E+00  0.1600E+02
     13.794  0.0000E+00  0.1600E+02
     13.874  0.0000E+00  0.1600E+02
     13.954  0.0000E+00  0.1600E+02
     14.034  0.0000E+00  0.1600E+02
     14.115  0.0000E+00  0.1600E+02
     14.195  0.0000E+00  0.1600E+02
     14.275  0.0000E+00  0.1600E+02
     14.355  0.0000E+00  0.1600E+02
     14.435  0.0000E+00  0.1600E+02
     14.515  0.0000E+00  0.1600E+02
     14.595  0.0000E+00  0.1600E+02
     14.675  0.0000E+00  0.1600E+02
     14.755  0.0000E+00  0.1600E+02
     14.835  0.0000E+00  0.1600E+02
     14.915  0.0000E+00  0.1600E+02
     14.995  0.0000E+00  0.1600E+02
     15.075  0.0000E+00  0.1600E+02
     15.155  0.0000E+00  0.1600E+02
     15.235  0.0000E+00  0.1600E+02
     15.315  0.0000E+00  0.1600E+02
     15.396  0.0000E+00  0.1600E+02
     15.476  0.0000E+00  0.1600E+02
     15.556  0.0000E+00  0.1600E+02
     15.636  0.0000E+00  0.1600E+02
     15.716  0.0000E+00  0.1600E+02
     15.796  0.0000E+00  0.1600E+02
     15.876  0.0000E+00  0.1600E+02
     15.956  0.0000E+00  0.1600E+02
     16.036  0.0000E+00  0.1600E+02
     16.116  0.0000E+00  0.1600E+02
     16.196  0.0000E+00  0.1600E+02
     16.276  0.0000E+00  0.1600E+02
     16.356  0.0000E+00  0.1600E+02
     16.436  0.0000E+00  0.1600E+02
     16.516  0.0000E+00  0.1600E+02
     16.597  0.0000E+00  0.1600E+02
     16.677  0.0000E+00  0.1600E+02
     16.757  0.0000E+00  0.1600E+02
     16.837  0.0000E+00  0.1600E+02
     16.917  0.0000E+00  0.1600E+02
     16.997  0.0000E+00  0.1600E+02
     17.077  0.0000E+00  0.1600E+02
