    2    2    1    1
  0.2033524E+02  0.3860096E-09  0.3860096E-09  0.3860096E-09  0.5000000E-15
  1.000000000000000E-004
  CAR 
 Band structure                          
      8     68      8
 
  0.0000000E+00  0.0000000E+00  0.0000000E+00  0.1562500E-01
    1       -5.850698   1.000000
    2        6.169499   1.000000
    3        6.169499   1.000000
    4        6.169499   1.000000
    5        8.450127   0.000000
    6        8.450127   0.000000
    7        8.450127   0.000000
    8        9.311605   0.000000
 
 -0.4579600E-01  0.4579600E-01  0.4579600E-01  0.1250000E+00
    1       -5.749531   1.000000
    2        5.339637   1.000000
    3        5.823963   1.000000
    4        5.960348   1.000000
    5        8.344585   0.000000
    6        8.774129   0.000000
    7        8.903001   0.000000
    8        9.977536   0.000000
 
 -0.9159200E-01  0.9159200E-01  0.9159200E-01  0.6250000E-01
    1       -5.448187   1.000000
    2        3.918385   1.000000
    3        5.199966   1.000000
    4        5.401395   1.000000
    5        8.144945   0.000000
    6        9.243360   0.000000
    7        9.789792   0.000000
    8       10.855348   0.000000
 
  0.0000000E+00  0.0000000E+00  0.9159200E-01  0.9375000E-01
    1       -5.740443   1.000000
    2        5.116720   1.000000
    3        5.982909   1.000000
    4        5.982909   1.000000
    5        8.489875   0.000000
    6        8.716207   0.000000
    7        8.716208   0.000000
    8       10.116876   0.000000
 
 -0.4579600E-01  0.4579600E-01  0.1373880E+00  0.3750000E+00
    1       -5.530291   1.000000
    2        4.186962   1.000000
    3        5.145799   1.000000
    4        5.824312   1.000000
    5        8.410907   0.000000
    6        8.971204   0.000000
    7        9.384841   0.000000
    8       10.939596   0.000000
 
  0.9159200E-01 -0.9159200E-01  0.0000000E+00  0.1875000E+00
    1       -5.557731   1.000000
    2        4.306856   1.000000
    3        5.066907   1.000000
    4        6.022955   1.000000
    5        8.749934   0.000000
    6        8.869427   0.000000
    7        8.964874   0.000000
    8       10.969909   0.000000
 
  0.0000000E+00  0.0000000E+00  0.1831840E+00  0.4687500E-01
    1       -5.413647   1.000000
    2        3.388585   1.000000
    3        5.619515   1.000000
    4        5.619515   1.000000
    5        8.174303   0.000000
    6        9.200944   0.000000
    7        9.200944   0.000000
    8       11.690294   0.000000
 
  0.1831840E+00 -0.9159200E-01  0.0000000E+00  0.9375000E-01
    1       -5.162324   1.000000
    2        2.795835   1.000000
    3        4.483319   1.000000
    4        5.730004   1.000000
    5        8.629820   0.000000
    6        9.152561   0.000000
    7        9.547070   0.000000
    8       11.716551   0.000000
 
  0.5000000E+00  0.2500000E+00  0.7500000E+00  0.0000000E+00
    1       -1.502477   1.000000
    2       -1.502477   1.000000
    3        2.106212   1.000000
    4        2.106212   1.000000
    5       10.099247   0.000000
    6       10.099248   0.000000
    7       10.852440   0.000000
    8       10.852440   0.000000
 
  0.5000000E+00  0.2708330E+00  0.7291670E+00  0.0000000E+00
    1       -1.774661   1.000000
    2       -1.241183   1.000000
    3        1.927026   1.000000
    4        2.343764   1.000000
    5        9.847248   0.000000
    6       10.160554   0.000000
    7       10.802576   0.000000
    8       11.154715   0.000000
 
  0.5000000E+00  0.2916670E+00  0.7083330E+00  0.0000000E+00
    1       -2.043447   1.000000
    2       -1.011244   1.000000
    3        1.828709   1.000000
    4        2.622324   1.000000
    5        9.586696   0.000000
    6        9.948053   0.000000
    7       11.087460   0.000000
    8       11.527699   0.000000
 
  0.5000000E+00  0.3125000E+00  0.6875000E+00  0.0000000E+00
    1       -2.299551   1.000000
    2       -0.836675   1.000000
    3        1.836298   1.000000
    4        2.928178   1.000000
    5        9.355709   0.000000
    6        9.679719   0.000000
    7       11.487878   0.000000
    8       11.933088   0.000000
 
  0.5000000E+00  0.3333330E+00  0.6666670E+00  0.0000000E+00
    1       -2.536980   1.000000
    2       -0.734272   1.000000
    3        1.966836   1.000000
    4        3.249391   1.000000
    5        9.165287   0.000000
    6        9.417068   0.000000
    7       11.940415   0.000000
    8       12.358372   0.000000
 
  0.5000000E+00  0.3541670E+00  0.6458330E+00  0.0000000E+00
    1       -2.751837   1.000000
    2       -0.701767   1.000000
    3        2.217321   1.000000
    4        3.574203   1.000000
    5        9.021700   0.000000
    6        9.169961   0.000000
    7       12.432049   0.000000
    8       12.631101   0.000000
 
  0.5000000E+00  0.3750000E+00  0.6250000E+00  0.0000000E+00
    1       -2.941481   1.000000
    2       -0.719964   1.000000
    3        2.566476   1.000000
    4        3.890053   1.000000
    5        8.929819   0.000000
    6        8.937397   0.000000
    7       11.815988   0.000000
    8       12.965426   0.000000
 
  0.5000000E+00  0.3958330E+00  0.6041670E+00  0.0000000E+00
    1       -3.104131   1.000000
    2       -0.765775   1.000000
    3        2.987186   1.000000
    4        4.183528   1.000000
    5        8.711453   0.000000
    6        8.892728   0.000000
    7       11.052426   0.000000
    8       13.522486   0.000000
 
  0.5000000E+00  0.4166670E+00  0.5833330E+00  0.0000000E+00
    1       -3.238549   1.000000
    2       -0.820856   1.000000
    3        3.453572   1.000000
    4        4.441125   1.000000
    5        8.474686   0.000000
    6        8.909440   0.000000
    7       10.369891   0.000000
    8       13.792620   0.000000
 
  0.5000000E+00  0.4375000E+00  0.5625000E+00  0.0000000E+00
    1       -3.343854   1.000000
    2       -0.872939   1.000000
    3        3.938558   1.000000
    4        4.650917   1.000000
    5        8.199294   0.000000
    6        8.970971   0.000000
    7        9.814568   0.000000
    8       13.727069   0.000000
 
  0.5000000E+00  0.4583330E+00  0.5416670E+00  0.0000000E+00
    1       -3.419460   1.000000
    2       -0.914433   1.000000
    3        4.403489   1.000000
    4        4.804464   1.000000
    5        7.872765   0.000000
    6        9.056187   0.000000
    7        9.432185   0.000000
    8       13.493048   0.000000
 
  0.5000000E+00  0.4791670E+00  0.5208330E+00  0.0000000E+00
    1       -3.464972   1.000000
    2       -0.940875   1.000000
    3        4.775683   1.000000
    4        4.897423   1.000000
    5        7.561958   0.000000
    6        9.131672   0.000000
    7        9.225436   0.000000
    8       13.282331   0.000000
 
  0.5000000E+00  0.5000000E+00  0.5000000E+00  0.0000000E+00
    1       -3.480169   1.000000
    2       -0.949936   1.000000
    3        4.928451   1.000000
    4        4.928451   1.000000
    5        7.424172   0.000000
    6        9.162139   0.000000
    7        9.162139   0.000000
    8       13.201167   0.000000
 
  0.4666670E+00  0.4666670E+00  0.4666670E+00  0.0000000E+00
    1       -3.545641   1.000000
    2       -0.856828   1.000000
    3        4.936350   1.000000
    4        4.936350   1.000000
    5        7.433225   0.000000
    6        9.172557   0.000000
    7        9.172557   0.000000
    8       13.217346   0.000000
 
  0.4333330E+00  0.4333330E+00  0.4333330E+00  0.0000000E+00
    1       -3.717699   1.000000
    2       -0.601920   1.000000
    3        4.960043   1.000000
    4        4.960043   1.000000
    5        7.460305   0.000000
    6        9.202679   0.000000
    7        9.202679   0.000000
    8       13.264468   0.000000
 
  0.4000000E+00  0.4000000E+00  0.4000000E+00  0.0000000E+00
    1       -3.949922   1.000000
    2       -0.231957   1.000000
    3        4.999544   1.000000
    4        4.999544   1.000000
    5        7.505267   0.000000
    6        9.248958   0.000000
    7        9.248958   0.000000
    8       13.337340   0.000000
 
  0.3666670E+00  0.3666670E+00  0.3666670E+00  0.0000000E+00
    1       -4.205811   1.000000
    2        0.215921   1.000000
    3        5.054825   1.000000
    4        5.054825   1.000000
    5        7.567801   0.000000
    6        9.304935   0.000000
    7        9.304935   0.000000
    8       13.422183   0.000000
 
  0.3333330E+00  0.3333330E+00  0.3333330E+00  0.0000000E+00
    1       -4.463469   1.000000
    2        0.719026   1.000000
    3        5.125752   1.000000
    4        5.125752   1.000000
    5        7.647355   0.000000
    6        9.360505   0.000000
    7        9.360505   0.000000
    8       13.478907   0.000000
 
  0.3000000E+00  0.3000000E+00  0.3000000E+00  0.0000000E+00
    1       -4.710566   1.000000
    2        1.263797   1.000000
    3        5.212005   1.000000
    4        5.212005   1.000000
    5        7.743021   0.000000
    6        9.401346   0.000000
    7        9.401346   0.000000
    8       13.398859   0.000000
 
  0.2666670E+00  0.2666670E+00  0.2666670E+00  0.0000000E+00
    1       -4.940108   1.000000
    2        1.841403   1.000000
    3        5.312894   1.000000
    4        5.312894   1.000000
    5        7.853280   0.000000
    6        9.409736   0.000000
    7        9.409736   0.000000
    8       13.049311   0.000000
 
  0.2333330E+00  0.2333330E+00  0.2333330E+00  0.0000000E+00
    1       -5.147824   1.000000
    2        2.445163   1.000000
    3        5.427206   1.000000
    4        5.427206   1.000000
    5        7.975785   0.000000
    6        9.368846   0.000000
    7        9.368846   0.000000
    8       12.542250   0.000000
 
  0.2000000E+00  0.2000000E+00  0.2000000E+00  0.0000000E+00
    1       -5.331049   1.000000
    2        3.068736   1.000000
    3        5.552846   1.000000
    4        5.552846   1.000000
    5        8.106767   0.000000
    6        9.270645   0.000000
    7        9.270645   0.000000
    8       11.982028   0.000000
 
  0.1666670E+00  0.1666670E+00  0.1666670E+00  0.0000000E+00
    1       -5.488115   1.000000
    2        3.704753   1.000000
    3        5.686399   1.000000
    4        5.686399   1.000000
    5        8.240297   0.000000
    6        9.122021   0.000000
    7        9.122021   0.000000
    8       11.400869   0.000000
 
  0.1333330E+00  0.1333330E+00  0.1333330E+00  0.0000000E+00
    1       -5.617807   1.000000
    2        4.342870   1.000000
    3        5.822419   1.000000
    4        5.822419   1.000000
    5        8.366840   0.000000
    6        8.942984   0.000000
    7        8.942984   0.000000
    8       10.816232   0.000000
 
  0.1000000E+00  0.1000000E+00  0.1000000E+00  0.0000000E+00
    1       -5.719336   1.000000
    2        4.965543   1.000000
    3        5.952437   1.000000
    4        5.952437   1.000000
    5        8.470351   0.000000
    6        8.759802   0.000000
    7        8.759802   0.000000
    8       10.251368   0.000000
 
  0.6666700E-01  0.6666700E-01  0.6666700E-01  0.0000000E+00
    1       -5.792220   1.000000
    2        5.538403   1.000000
    3        6.064083   1.000000
    4        6.064083   1.000000
    5        8.523152   0.000000
    6        8.599949   0.000000
    7        8.599949   0.000000
    8        9.755298   0.000000
 
  0.3333300E-01  0.3333300E-01  0.3333300E-01  0.0000000E+00
    1       -5.836068   1.000000
    2        5.986697   1.000000
    3        6.141506   1.000000
    4        6.141506   1.000000
    5        8.489705   0.000000
    6        8.489705   0.000000
    7        8.494978   0.000000
    8        9.419975   0.000000
 
  0.0000000E+00  0.0000000E+00  0.0000000E+00  0.0000000E+00
    1       -5.850698   1.000000
    2        6.169499   1.000000
    3        6.169499   1.000000
    4        6.169499   1.000000
    5        8.450127   0.000000
    6        8.450127   0.000000
    7        8.450127   0.000000
    8        9.311606   0.000000
 
  0.2941200E-01  0.0000000E+00  0.2941200E-01  0.0000000E+00
    1       -5.835508   1.000000
    2        6.063430   1.000000
    3        6.096405   1.000000
    4        6.096405   1.000000
    5        8.408902   0.000000
    6        8.541742   0.000000
    7        8.541742   0.000000
    8        9.415212   0.000000
 
  0.5882400E-01  0.0000000E+00  0.5882400E-01  0.0000000E+00
    1       -5.789945   1.000000
    2        5.780941   1.000000
    3        5.905968   1.000000
    4        5.905968   1.000000
    5        8.292518   0.000000
    6        8.787559   0.000000
    7        8.787559   0.000000
    8        9.682895   0.000000
 
  0.8823500E-01  0.0000000E+00  0.8823500E-01  0.0000000E+00
    1       -5.714085   1.000000
    2        5.387927   1.000000
    3        5.650628   1.000000
    4        5.650629   1.000000
    5        8.118982   0.000000
    6        9.134714   0.000000
    7        9.134714   0.000000
    8       10.018601   0.000000
 
  0.1176470E+00  0.0000000E+00  0.1176470E+00  0.0000000E+00
    1       -5.608097   1.000000
    2        4.933549   1.000000
    3        5.368968   1.000000
    4        5.368968   1.000000
    5        7.909293   0.000000
    6        9.543933   0.000000
    7        9.543933   0.000000
    8       10.286725   0.000000
 
  0.1470590E+00  0.0000000E+00  0.1470590E+00  0.0000000E+00
    1       -5.472147   1.000000
    2        4.445527   1.000000
    3        5.082942   1.000000
    4        5.082942   1.000000
    5        7.682050   0.000000
    6        9.992375   0.000000
    7        9.992375   0.000000
    8       10.295612   0.000000
 
  0.1764710E+00  0.0000000E+00  0.1764710E+00  0.0000000E+00
    1       -5.306499   1.000000
    2        3.938494   1.000000
    3        4.804617   1.000000
    4        4.804617   1.000000
    5        7.451711   0.000000
    6       10.002235   0.000000
    7       10.467037   0.000000
    8       10.467037   0.000000
 
  0.2058820E+00  0.0000000E+00  0.2058820E+00  0.0000000E+00
    1       -5.111511   1.000000
    2        3.420376   1.000000
    3        4.540914   1.000000
    4        4.540914   1.000000
    5        7.228870   0.000000
    6        9.566019   0.000000
    7       10.960097   0.000000
    8       10.960097   0.000000
 
  0.2352940E+00  0.0000000E+00  0.2352940E+00  0.0000000E+00
    1       -4.887543   1.000000
    2        2.895716   1.000000
    3        4.296048   1.000000
    4        4.296048   1.000000
    5        7.021155   0.000000
    6        9.097029   0.000000
    7       11.466628   0.000000
    8       11.466629   0.000000
 
  0.2647060E+00  0.0000000E+00  0.2647060E+00  0.0000000E+00
    1       -4.635091   1.000000
    2        2.367646   1.000000
    3        4.072772   1.000000
    4        4.072773   1.000000
    5        6.834169   0.000000
    6        8.640051   0.000000
    7       11.983408   0.000000
    8       11.983408   0.000000
 
  0.2941180E+00  0.0000000E+00  0.2941180E+00  0.0000000E+00
    1       -4.354760   1.000000
    2        1.838664   1.000000
    3        3.872936   1.000000
    4        3.872936   1.000000
    5        6.672072   0.000000
    6        8.213981   0.000000
    7       12.508378   0.000000
    8       12.508378   0.000000
 
  0.3235290E+00  0.0000000E+00  0.3235290E+00  0.0000000E+00
    1       -4.047204   1.000000
    2        1.311123   1.000000
    3        3.697853   1.000000
    4        3.697853   1.000000
    5        6.538080   0.000000
    6        7.827580   0.000000
    7       13.040265   0.000000
    8       13.040266   0.000000
 
  0.3529410E+00  0.0000000E+00  0.3529410E+00  0.0000000E+00
    1       -3.713215   1.000000
    2        0.787418   1.000000
    3        3.548451   1.000000
    4        3.548451   1.000000
    5        6.434778   0.000000
    6        7.484920   0.000000
    7       13.578252   0.000000
    8       13.578253   0.000000
 
  0.3823530E+00  0.0000000E+00  0.3823530E+00  0.0000000E+00
    1       -3.353760   1.000000
    2        0.270088   1.000000
    3        3.425427   1.000000
    4        3.425427   1.000000
    5        6.364338   0.000000
    6        7.187660   0.000000
    7       14.121238   0.000000
    8       14.121239   0.000000
 
  0.4117650E+00  0.0000000E+00  0.4117650E+00  0.0000000E+00
    1       -2.969890   1.000000
    2       -0.238337   1.000000
    3        3.329279   1.000000
    4        3.329279   1.000000
    5        6.328659   0.000000
    6        6.936041   0.000000
    7       14.666693   0.000000
    8       14.666694   0.000000
 
  0.4411760E+00  0.0000000E+00  0.4411760E+00  0.0000000E+00
    1       -2.562877   1.000000
    2       -0.735306   1.000000
    3        3.260368   1.000000
    4        3.260369   1.000000
    5        6.329473   0.000000
    6        6.729490   0.000000
    7       15.206667   0.000000
    8       15.206669   0.000000
 
  0.4705880E+00  0.0000000E+00  0.4705880E+00  0.0000000E+00
    1       -2.134172   1.000000
    2       -1.218419   1.000000
    3        3.218932   1.000000
    4        3.218932   1.000000
    5        6.368416   0.000000
    6        6.566938   0.000000
    7       15.708486   0.000000
    8       15.708486   0.000000
 
  0.5000000E+00  0.0000000E+00  0.5000000E+00  0.0000000E+00
    1       -1.685395   1.000000
    2       -1.685395   1.000000
    3        3.205106   1.000000
    4        3.205106   1.000000
    5        6.447063   0.000000
    6        6.447064   0.000000
    7       15.985041   0.000000
    8       15.985111   0.000000
 
  0.5000000E+00  0.2777800E-01  0.5277780E+00  0.0000000E+00
    1       -1.680424   1.000000
    2       -1.680424   1.000000
    3        3.158560   1.000000
    4        3.158560   1.000000
    5        6.527345   0.000000
    6        6.527345   0.000000
    7       15.853314   0.000000
    8       15.853474   0.000000
 
  0.5000000E+00  0.5555600E-01  0.5555560E+00  0.0000000E+00
    1       -1.665951   1.000000
    2       -1.665951   1.000000
    3        3.033076   1.000000
    4        3.033077   1.000000
    5        6.754324   0.000000
    6        6.754324   0.000000
    7       15.420911   0.000000
    8       15.420947   0.000000
 
  0.5000000E+00  0.8333300E-01  0.5833330E+00  0.0000000E+00
    1       -1.643295   1.000000
    2       -1.643295   1.000000
    3        2.859981   1.000000
    4        2.859981   1.000000
    5        7.097523   0.000000
    6        7.097523   0.000000
    7       14.784433   0.000000
    8       14.784435   0.000000
 
  0.5000000E+00  0.1111110E+00  0.6111110E+00  0.0000000E+00
    1       -1.614637   1.000000
    2       -1.614637   1.000000
    3        2.670357   1.000000
    4        2.670357   1.000000
    5        7.527194   0.000000
    6        7.527194   0.000000
    7       14.074771   0.000000
    8       14.074771   0.000000
 
  0.5000000E+00  0.1388890E+00  0.6388890E+00  0.0000000E+00
    1       -1.583019   1.000000
    2       -1.583019   1.000000
    3        2.488041   1.000000
    4        2.488041   1.000000
    5        8.021030   0.000000
    6        8.021030   0.000000
    7       13.346414   0.000000
    8       13.346415   0.000000
 
  0.5000000E+00  0.1666670E+00  0.6666670E+00  0.0000000E+00
    1       -1.552162   1.000000
    2       -1.552162   1.000000
    3        2.330071   1.000000
    4        2.330071   1.000000
    5        8.562968   0.000000
    6        8.562968   0.000000
    7       12.621991   0.000000
    8       12.621991   0.000000
 
  0.5000000E+00  0.1944440E+00  0.6944440E+00  0.0000000E+00
    1       -1.526111   1.000000
    2       -1.526111   1.000000
    3        2.208633   1.000000
    4        2.208633   1.000000
    5        9.138534   0.000000
    6        9.138534   0.000000
    7       11.916616   0.000000
    8       11.916616   0.000000
 
  0.5000000E+00  0.2222220E+00  0.7222220E+00  0.0000000E+00
    1       -1.508638   1.000000
    2       -1.508638   1.000000
    3        2.132263   1.000000
    4        2.132263   1.000000
    5        9.719629   0.000000
    6        9.719629   0.000000
    7       11.257888   0.000000
    8       11.257888   0.000000
 
  0.5000000E+00  0.2500000E+00  0.7500000E+00  0.0000000E+00
    1       -1.502477   1.000000
    2       -1.502477   1.000000
    3        2.106212   1.000000
    4        2.106212   1.000000
    5       10.099247   0.000000
    6       10.099248   0.000000
    7       10.852440   0.000000
    8       10.852440   0.000000
 
  0.4791670E+00  0.2708330E+00  0.7500000E+00  0.0000000E+00
    1       -1.677522   1.000000
    2       -1.339589   1.000000
    3        1.967501   1.000000
    4        2.302381   1.000000
    5        9.550600   0.000000
    6       10.153479   0.000000
    7       11.128784   0.000000
    8       11.131298   0.000000
 
  0.4583330E+00  0.2916670E+00  0.7500000E+00  0.0000000E+00
    1       -1.821144   1.000000
    2       -1.229070   1.000000
    3        1.851874   1.000000
    4        2.581116   1.000000
    5        8.815896   0.000000
    6       10.109879   0.000000
    7       11.553139   0.000000
    8       11.672366   0.000000
 
  0.4375000E+00  0.3125000E+00  0.7500000E+00  0.0000000E+00
    1       -1.933089   1.000000
    2       -1.161016   1.000000
    3        1.760706   1.000000
    4        2.914695   1.000000
    5        8.124915   0.000000
    6       10.050369   0.000000
    7       12.031025   0.000000
    8       12.270264   0.000000
 
  0.4166670E+00  0.3333330E+00  0.7500000E+00  0.0000000E+00
    1       -2.013172   1.000000
    2       -1.123034   1.000000
    3        1.694958   1.000000
    4        3.256676   1.000000
    5        7.533696   0.000000
    6       10.000536   0.000000
    7       12.531149   0.000000
    8       12.897909   0.000000
 
  0.3958330E+00  0.3541670E+00  0.7500000E+00  0.0000000E+00
    1       -2.061274   1.000000
    2       -1.104649   1.000000
    3        1.655263   1.000000
    4        3.532779   1.000000
    5        7.111254   0.000000
    6        9.968650   0.000000
    7       13.022968   0.000000
    8       13.542796   0.000000
 
  0.3750000E+00  0.3750000E+00  0.7500000E+00  0.0000000E+00
    1       -2.077308   1.000000
    2       -1.099256   1.000000
    3        1.641995   1.000000
    4        3.643474   1.000000
    5        6.952355   0.000000
    6        9.957758   0.000000
    7       13.336411   0.000000
    8       13.934433   0.000000
