Automatically generated mesh
       8
Reciprocal lattice
    0.00000000000000    0.00000000000000    0.00000000000000             1
    0.25000000000000    0.00000000000000    0.00000000000000             8
    0.50000000000000    0.00000000000000    0.00000000000000             4
    0.25000000000000    0.25000000000000    0.00000000000000             6
    0.50000000000000    0.25000000000000    0.00000000000000            24
   -0.25000000000000    0.25000000000000    0.00000000000000            12
    0.50000000000000    0.50000000000000    0.00000000000000             3
   -0.25000000000000    0.50000000000000    0.25000000000000             6
Tetrahedra
         9    0.00260416666667
        24         1         2         2         4
        48         2         4         5         6
        48         2         3         5         6
        24         2         2         4         6
        48         3         5         5         6
        24         4         5         5         7
        24         4         5         5         6
        48         5         5         7         8
        96         5         5         6         8
