 vasp.5.4.1 24Jun15 (build Oct 13 2015 09:47:18) complex                        
  
 executed on           IFC91_ompi date 2016.02.03  15:48:28
 running on    1 total cores
 distrk:  each k-point on    1 cores,    1 groups
 distr:  one band on NCORES_PER_BAND=   1 cores,    1 groups


--------------------------------------------------------------------------------------------------------


 INCAR:
 POTCAR:    PAW_PBE Si 05Jan2001                  
 POTCAR:    PAW_PBE Si 05Jan2001                  
   VRHFIN =Si: s2p2                                                             
   LEXCH  = PE                                                                  
   EATOM  =   103.0669 eV,    7.5752 Ry                                         
                                                                                
   TITEL  = PAW_PBE Si 05Jan2001                                                
   LULTRA =        F    use ultrasoft PP ?                                      
   IUNSCR =        1    unscreen: 0-lin 1-nonlin 2-no                           
   RPACOR =    1.500    partial core radius                                     
   POMASS =   28.085; ZVAL   =    4.000    mass and valenz                      
   RCORE  =    1.900    outmost cutoff radius                                   
   RWIGS  =    2.480; RWIGS  =    1.312    wigner-seitz radius (au A)           
   ENMAX  =  245.345; ENMIN  =  184.009 eV                                      
   ICORE  =        2    local potential                                         
   LCOR   =        T    correct aug charges                                     
   LPAW   =        T    paw PP                                                  
   EAUG   =  322.069                                                            
   DEXC   =    0.000                                                            
   RMAX   =    1.950    core radius for proj-oper                               
   RAUG   =    1.300    factor for augmentation sphere                          
   RDEP   =    1.993    radius for radial grids                                 
   RDEPT  =    1.837    core radius for aug-charge                              
                                                                                
   Atomic configuration                                                         
    6 entries                                                                   
     n  l   j            E        occ.                                          
     1  0  0.50     -1785.8828   2.0000                                         
     2  0  0.50      -139.4969   2.0000                                         
     2  1  1.50       -95.5546   6.0000                                         
     3  0  0.50       -10.8127   2.0000                                         
     3  1  0.50        -4.0811   2.0000                                         
     3  2  1.50        -4.0817   0.0000                                         
   Description                                                                  
     l       E           TYP  RCUT    TYP  RCUT                                 
     0    -10.8127223     23  1.900                                             
     0     -7.6451159     23  1.900                                             
     1     -4.0811372     23  1.900                                             
     1      2.4879257     23  1.900                                             
     2     -4.0817478      7  1.900                                             
  local pseudopotential read in
  partial core-charges read in
  partial kinetic energy density read in
  atomic valenz-charges read in
  non local Contribution for L=           0  read in
    real space projection operators read in
  non local Contribution for L=           0  read in
    real space projection operators read in
  non local Contribution for L=           1  read in
    real space projection operators read in
  non local Contribution for L=           1  read in
    real space projection operators read in
    PAW grid and wavefunctions read in
 
   number of l-projection  operators is LMAX  =           4
   number of lm-projection operators is LMMAX =           8
 

 ----------------------------------------------------------------------------- 
|                                                                             |
|  ADVICE TO THIS USER RUNNING 'VASP/VAMP'   (HEAR YOUR MASTER'S VOICE ...):  |
|                                                                             |
|      You enforced a specific xc-type in the INCAR file,                     |
|      a different type was found on the POTCAR file                          |
|          I HOPE YOU KNOW, WHAT YOU ARE  DOING                               |
|                                                                             |
 ----------------------------------------------------------------------------- 

  PAW_PBE Si 05Jan2001                  :
 energy of atom  1       EATOM= -103.0669
 kinetic energy error for atom=    0.0006 (will be added to EATOM!!)
 
 
 POSCAR: Si                                      
  positions in cartesian coordinates
  No initial velocities read in
 exchange correlation table for  LEXCH =       14
   RHO(1)=    0.500       N(1)  =     2000
   RHO(2)=  100.500       N(2)  =     4000
 


--------------------------------------------------------------------------------------------------------


 ion  position               nearest neighbor table
   1  0.000  0.000  0.000-   2 2.36   2 2.36   2 2.36   2 2.36
   2  0.250  0.250  0.250-   1 2.36   1 2.36   1 2.36   1 2.36
 
  LATTYP: Found a face centered cubic cell.
 ALAT       =     5.4590000000
  
  Lattice vectors:
  
 A1 = (   0.0000000000,   2.7295000000,   2.7295000000)
 A2 = (   2.7295000000,   0.0000000000,   2.7295000000)
 A3 = (   2.7295000000,   2.7295000000,   0.0000000000)


Analysis of symmetry for initial positions (statically):
=====================================================================
 Subroutine PRICEL returns:
 Original cell was already a primitive cell.
 

 Routine SETGRP: Setting up the symmetry group for a 
 face centered cubic supercell.


 Subroutine GETGRP returns: Found 48 space group operations
 (whereof 24 operations were pure point group operations)
 out of a pool of 48 trial point group operations.


The static configuration has the point symmetry T_d .
 The point group associated with its full space group is O_h .


Analysis of symmetry for dynamics (positions and initial velocities):
=====================================================================
 Subroutine PRICEL returns:
 Original cell was already a primitive cell.
 

 Routine SETGRP: Setting up the symmetry group for a 
 face centered cubic supercell.


 Subroutine GETGRP returns: Found 48 space group operations
 (whereof 24 operations were pure point group operations)
 out of a pool of 48 trial point group operations.


The dynamic configuration has the point symmetry T_d .
 The point group associated with its full space group is O_h .
 
 
 KPOINTS: KPOINTS created by Atomic Simulation Env
  k-points in reciprocal lattice
Space group operators:
 irot       det(A)        alpha          n_x          n_y          n_z        tau_x        tau_y        tau_z
    1     1.000000     0.000000     1.000000     0.000000     0.000000     0.000000     0.000000     0.000000
    2     1.000000   120.000000    -0.577350    -0.577350    -0.577350     0.000000     0.000000     0.000000
    3     1.000000   120.000000     0.577350     0.577350     0.577350     0.000000     0.000000     0.000000
    4    -1.000000    90.000000     0.000000    -0.000000    -1.000000     0.000000     0.000000     0.000000
    5    -1.000000   180.000000     0.000000    -0.707107    -0.707107     0.000000     0.000000     0.000000
    6    -1.000000    90.000000    -0.000000     1.000000    -0.000000     0.000000     0.000000     0.000000
    7     1.000000   180.000000     0.000000     0.000000     1.000000     0.000000     0.000000     0.000000
    8     1.000000   120.000000    -0.577350     0.577350     0.577350     0.000000     0.000000     0.000000
    9     1.000000   120.000000    -0.577350     0.577350    -0.577350     0.000000     0.000000     0.000000
   10    -1.000000    90.000000     0.000000    -0.000000     1.000000     0.000000     0.000000     0.000000
   11    -1.000000    90.000000    -1.000000     0.000000     0.000000     0.000000     0.000000     0.000000
   12    -1.000000   180.000000     0.707107    -0.000000     0.707107     0.000000     0.000000     0.000000
   13     1.000000   120.000000     0.577350    -0.577350     0.577350     0.000000     0.000000     0.000000
   14     1.000000   120.000000    -0.577350    -0.577350     0.577350     0.000000     0.000000     0.000000
   15     1.000000   180.000000     1.000000    -0.000000    -0.000000     0.000000     0.000000     0.000000
   16    -1.000000    90.000000     0.000000    -1.000000     0.000000     0.000000     0.000000     0.000000
   17    -1.000000   180.000000     0.707107     0.707107    -0.000000     0.000000     0.000000     0.000000
   18    -1.000000    90.000000     1.000000    -0.000000    -0.000000     0.000000     0.000000     0.000000
   19     1.000000   120.000000     0.577350    -0.577350    -0.577350     0.000000     0.000000     0.000000
   20     1.000000   180.000000     0.000000     1.000000    -0.000000     0.000000     0.000000     0.000000
   21     1.000000   120.000000     0.577350     0.577350    -0.577350     0.000000     0.000000     0.000000
   22    -1.000000   180.000000    -0.000000     0.707107    -0.707107     0.000000     0.000000     0.000000
   23    -1.000000   180.000000     0.707107    -0.707107     0.000000     0.000000     0.000000     0.000000
   24    -1.000000   180.000000    -0.707107     0.000000     0.707107     0.000000     0.000000     0.000000
   25    -1.000000     0.000000     1.000000     0.000000     0.000000     0.250000     0.250000     0.250000
   26    -1.000000   120.000000    -0.577350    -0.577350    -0.577350     0.250000     0.250000     0.250000
   27    -1.000000   120.000000     0.577350     0.577350     0.577350     0.250000     0.250000     0.250000
   28     1.000000    90.000000     0.000000    -0.000000    -1.000000     0.250000     0.250000     0.250000
   29     1.000000   180.000000     0.000000    -0.707107    -0.707107     0.250000     0.250000     0.250000
   30     1.000000    90.000000    -0.000000     1.000000    -0.000000     0.250000     0.250000     0.250000
   31    -1.000000   180.000000     0.000000     0.000000     1.000000     0.250000     0.250000     0.250000
   32    -1.000000   120.000000    -0.577350     0.577350     0.577350     0.250000     0.250000     0.250000
   33    -1.000000   120.000000    -0.577350     0.577350    -0.577350     0.250000     0.250000     0.250000
   34     1.000000    90.000000     0.000000    -0.000000     1.000000     0.250000     0.250000     0.250000
   35     1.000000    90.000000    -1.000000     0.000000     0.000000     0.250000     0.250000     0.250000
   36     1.000000   180.000000     0.707107    -0.000000     0.707107     0.250000     0.250000     0.250000
   37    -1.000000   120.000000     0.577350    -0.577350     0.577350     0.250000     0.250000     0.250000
   38    -1.000000   120.000000    -0.577350    -0.577350     0.577350     0.250000     0.250000     0.250000
   39    -1.000000   180.000000     1.000000    -0.000000    -0.000000     0.250000     0.250000     0.250000
   40     1.000000    90.000000     0.000000    -1.000000     0.000000     0.250000     0.250000     0.250000
   41     1.000000   180.000000     0.707107     0.707107    -0.000000     0.250000     0.250000     0.250000
   42     1.000000    90.000000     1.000000    -0.000000    -0.000000     0.250000     0.250000     0.250000
   43    -1.000000   120.000000     0.577350    -0.577350    -0.577350     0.250000     0.250000     0.250000
   44    -1.000000   180.000000     0.000000     1.000000    -0.000000     0.250000     0.250000     0.250000
   45    -1.000000   120.000000     0.577350     0.577350    -0.577350     0.250000     0.250000     0.250000
   46     1.000000   180.000000    -0.000000     0.707107    -0.707107     0.250000     0.250000     0.250000
   47     1.000000   180.000000     0.707107    -0.707107     0.000000     0.250000     0.250000     0.250000
   48     1.000000   180.000000    -0.707107     0.000000     0.707107     0.250000     0.250000     0.250000


--------------------------------------------------------------------------------------------------------




 Dimension of arrays:
   k-points           NKPTS =     68   k-points in BZ     NKDIM =     68   number of bands    NBANDS=      8
   number of dos      NEDOS =    301   number of ions     NIONS =      2
   non local maximal  LDIM  =      4   non local SUM 2l+1 LMDIM =      8
   total plane-waves  NPLWV =  13824
   max r-space proj   IRMAX =      1   max aug-charges    IRDMAX=  11563
   dimension x,y,z NGX =    24 NGY =   24 NGZ =   24
   dimension x,y,z NGXF=    48 NGYF=   48 NGZF=   48
   support grid    NGXF=    48 NGYF=   48 NGZF=   48
   ions per type =               2
 NGX,Y,Z   is equivalent  to a cutoff of  10.34, 10.34, 10.34 a.u.
 NGXF,Y,Z  is equivalent  to a cutoff of  20.67, 20.67, 20.67 a.u.


 I would recommend the setting:
   dimension x,y,z NGX =    21 NGY =   21 NGZ =   21
 SYSTEM =  Band structure                          
 POSCAR =  Si                                      

 Startparameter for this run:
   NWRITE =      2    write-flag & timer
   PREC   = normal    normal or accurate (medium, high low for compatibility)
   ISTART =      1    job   : 0-new  1-cont  2-samecut
   ICHARG =      0    charge: 1-file 2-atom 10-const
   ISPIN  =      1    spin polarized calculation?
   LNONCOLLINEAR =      F non collinear calculations
   LSORBIT =      F    spin-orbit coupling
   INIWAV =      1    electr: 0-lowe 1-rand  2-diag
   LASPH  =      F    aspherical Exc in radial PAW
   METAGGA=      F    non-selfconsistent MetaGGA calc.

 Electronic Relaxation 1
   ENCUT  =  500.0 eV  36.75 Ry    6.06 a.u.   7.04  7.04  7.04*2*pi/ulx,y,z
   ENINI  =  500.0     initial cutoff
   ENAUG  =  322.1 eV  augmentation charge cutoff
   NELM   =     60;   NELMIN=  2; NELMDL=  0     # of ELM steps 
   EDIFF  = 0.1E-03   stopping-criterion for ELM
   LREAL  =      F    real-space projection
   NLSPLINE    = F    spline interpolate recip. space projectors
   LCOMPAT=      F    compatible to vasp.4.4
   GGA_COMPAT  = T    GGA compatible to vasp.4.4-vasp.4.6
   LMAXPAW     = -100 max onsite density
   LMAXMIX     =    2 max onsite mixed and CHGCAR
   VOSKOWN=      0    Vosko Wilk Nusair interpolation
   ROPT   =    0.00000
 Ionic relaxation
   EDIFFG = 0.1E-02   stopping-criterion for IOM
   NSW    =      0    number of steps for IOM
   NBLOCK =      1;   KBLOCK =      1    inner block; outer block 
   IBRION =     -1    ionic relax: 0-MD 1-quasi-New 2-CG
   NFREE  =      0    steps in history (QN), initial steepest desc. (CG)
   ISIF   =      2    stress and relaxation
   IWAVPR =     10    prediction:  0-non 1-charg 2-wave 3-comb
   ISYM   =      2    0-nonsym 1-usesym 2-fastsym
   LCORR  =      T    Harris-Foulkes like correction to forces

   POTIM  = 0.5000    time-step for ionic-motion
   TEIN   =    0.0    initial temperature
   TEBEG  =    0.0;   TEEND  =   0.0 temperature during run
   SMASS  =  -3.00    Nose mass-parameter (am)
   estimated Nose-frequenzy (Omega)   =  0.10E-29 period in steps =****** mass=  -0.341E-27a.u.
   SCALEE = 1.0000    scale energy and forces
   NPACO  =    256;   APACO  = 16.0  distance and # of slots for P.C.
   PSTRESS=    0.0 pullay stress

  Mass of Ions in am
   POMASS =  28.09
  Ionic Valenz
   ZVAL   =   4.00
  Atomic Wigner-Seitz radii
   RWIGS  =  -1.00
  virtual crystal weights 
   VCA    =   1.00
   NELECT =       8.0000    total number of electrons
   NUPDOWN=      -1.0000    fix difference up-down

 DOS related values:
   EMIN   =  10.00;   EMAX   =-10.00  energy-range for DOS
   EFERMI =   0.00
   ISMEAR =     0;   SIGMA  =   0.01  broadening in eV -4-tet -1-fermi 0-gaus

 Electronic relaxation 2 (details)
   IALGO  =     38    algorithm
   LDIAG  =      T    sub-space diagonalisation (order eigenvalues)
   LSUBROT=      F    optimize rotation matrix (better conditioning)
   TURBO    =      0    0=normal 1=particle mesh
   IRESTART =      0    0=no restart 2=restart with 2 vectors
   NREBOOT  =      0    no. of reboots
   NMIN     =      0    reboot dimension
   EREF     =   0.00    reference energy to select bands
   IMIX   =      4    mixing-type and parameters
     AMIX     =   0.40;   BMIX     =  1.00
     AMIX_MAG =   1.60;   BMIX_MAG =  1.00
     AMIN     =   0.10
     WC   =   100.;   INIMIX=   1;  MIXPRE=   1;  MAXMIX= -45

 Intra band minimization:
   WEIMIN = 0.0000     energy-eigenvalue tresh-hold
   EBREAK =  0.31E-05  absolut break condition
   DEPER  =   0.30     relativ break condition  

   TIME   =   0.40     timestep for ELM

  volume/ion in A,a.u.               =      20.34       137.23
  Fermi-wavevector in a.u.,A,eV,Ry     =   0.952091  1.799191 12.333368  0.906477
  Thomas-Fermi vector in A             =   2.080622
 
 Write flags
   LWAVE  =      T    write WAVECAR
   LCHARG =      T    write CHGCAR
   LVTOT  =      F    write LOCPOT, total local potential
   LVHAR  =      F    write LOCPOT, Hartree potential only
   LELF   =      F    write electronic localiz. function (ELF)
   LORBIT =      0    0 simple, 1 ext, 2 COOP (PROOUT)


 Dipole corrections
   LMONO  =      F    monopole corrections only (constant potential shift)
   LDIPOL =      F    correct potential (dipole corrections)
   IDIPOL =      0    1-x, 2-y, 3-z, 4-all directions 
   EPSILON=  1.0000000 bulk dielectric constant

 Exchange correlation treatment:
   GGA     =    PS    GGA type
   LEXCH   =    14    internal setting for exchange type
   VOSKOWN=      0    Vosko Wilk Nusair interpolation
   LHFCALC =     F    Hartree Fock is set to
   LHFONE  =     F    Hartree Fock one center treatment
   AEXX    =    0.0000 exact exchange contribution

 Linear response parameters
   LEPSILON=     F    determine dielectric tensor
   LRPA    =     F    only Hartree local field effects (RPA)
   LNABLA  =     F    use nabla operator in PAW spheres
   LVEL    =     F    velocity operator in full k-point grid
   LINTERFAST=   F  fast interpolation
   KINTER  =     0    interpolate to denser k-point grid
   CSHIFT  =0.1000    complex shift for real part using Kramers Kronig
   OMEGAMAX=  -1.0    maximum frequency
   DEG_THRESHOLD= 0.2000000E-02 threshold for treating states as degnerate
   RTIME   =    0.100 relaxation time in fs

 Orbital magnetization related:
   ORBITALMAG=     F  switch on orbital magnetization
   LCHIMAG   =     F  perturbation theory with respect to B field
   DQ        =  0.001000  dq finite difference perturbation B field



--------------------------------------------------------------------------------------------------------


 Static calculation
 charge density and potential will be updated during run
 non-spin polarized calculation
 Variant of blocked Davidson
 Davidson routine will perform the subspace rotation
 perform sub-space diagonalisation
    after iterative eigenvector-optimisation
 modified Broyden-mixing scheme, WC =      100.0
 initial mixing is a Kerker type mixing with AMIX =  0.4000 and BMIX =      1.0000
 Hartree-type preconditioning will be used
 using additional bands            4
 reciprocal scheme for non local part
 use partial core corrections
 calculate Harris-corrections to forces 
   (improved forces if not selfconsistent)
 use gradient corrections 
 use of overlap-Matrix (Vanderbilt PP)
 Gauss-broadening in eV      SIGMA  =   0.01


--------------------------------------------------------------------------------------------------------


  energy-cutoff  :      500.00
  volume of cell :       40.67
      direct lattice vectors                 reciprocal lattice vectors
     0.000000000  2.729500000  2.729500000    -0.183183733  0.183183733  0.183183733
     2.729500000  0.000000000  2.729500000     0.183183733 -0.183183733  0.183183733
     2.729500000  2.729500000  0.000000000     0.183183733  0.183183733 -0.183183733

  length of vectors
     3.860095918  3.860095918  3.860095918     0.317283533  0.317283533  0.317283533


 
 old parameters found on file WAVECAR:
  energy-cutoff  :      300.00
  volume of cell :       40.67
      direct lattice vectors                 reciprocal lattice vectors
     0.000000000  2.729500000  2.729500000    -0.183183733  0.183183733  0.183183733
     2.729500000  0.000000000  2.729500000     0.183183733 -0.183183733  0.183183733
     2.729500000  2.729500000  0.000000000     0.183183733  0.183183733 -0.183183733

  length of vectors

 
 k-points in units of 2pi/SCALE and weight: KPOINTS created by Atomic Simulation Env
   0.00000000  0.00000000  0.00000000       0.016
   0.02516725 -0.00838908 -0.00838908       0.125
   0.05033449 -0.01677816 -0.01677816       0.062
   0.01677816  0.01677816 -0.01677816       0.094
   0.04194541  0.00838908 -0.02516725       0.375
  -0.03355633  0.03355633  0.00000000       0.188
   0.03355633  0.03355633 -0.03355633       0.047
  -0.05033449  0.05033449  0.01677816       0.094
   0.09159187  0.18318373 -0.00000000       0.000
   0.09159187  0.17555120  0.00763253       0.000
   0.09159187  0.16791830  0.01526543       0.000
   0.09159187  0.16028577  0.02289797       0.000
   0.09159187  0.15265323  0.03053050       0.000
   0.09159187  0.14502033  0.03816340       0.000
   0.09159187  0.13738780  0.04579593       0.000
   0.09159187  0.12975527  0.05342847       0.000
   0.09159187  0.12212237  0.06106137       0.000
   0.09159187  0.11448983  0.06869390       0.000
   0.09159187  0.10685730  0.07632643       0.000
   0.09159187  0.09922440  0.08395933       0.000
   0.09159187  0.09159187  0.09159187       0.000
   0.08548580  0.08548580  0.08548580       0.000
   0.07937956  0.07937956  0.07937956       0.000
   0.07327349  0.07327349  0.07327349       0.000
   0.06716743  0.06716743  0.06716743       0.000
   0.06106118  0.06106118  0.06106118       0.000
   0.05495512  0.05495512  0.05495512       0.000
   0.04884906  0.04884906  0.04884906       0.000
   0.04274281  0.04274281  0.04274281       0.000
   0.03663675  0.03663675  0.03663675       0.000
   0.03053068  0.03053068  0.03053068       0.000
   0.02442444  0.02442444  0.02442444       0.000
   0.01831837  0.01831837  0.01831837       0.000
   0.01221231  0.01221231  0.01221231       0.000
   0.00610606  0.00610606  0.00610606       0.000
   0.00000000  0.00000000  0.00000000       0.000
  -0.00000000  0.01077560 -0.00000000       0.000
  -0.00000000  0.02155120 -0.00000000       0.000
  -0.00000000  0.03232643 -0.00000000       0.000
  -0.00000000  0.04310203 -0.00000000       0.000
  -0.00000000  0.05387763 -0.00000000       0.000
  -0.00000000  0.06465323 -0.00000000       0.000
  -0.00000000  0.07542847 -0.00000000       0.000
  -0.00000000  0.08620407 -0.00000000       0.000
  -0.00000000  0.09697967 -0.00000000       0.000
  -0.00000000  0.10775527 -0.00000000       0.000
  -0.00000000  0.11853050 -0.00000000       0.000
  -0.00000000  0.12930610 -0.00000000       0.000
  -0.00000000  0.14008170 -0.00000000       0.000
  -0.00000000  0.15085730 -0.00000000       0.000
   0.00000000  0.16163253  0.00000000       0.000
  -0.00000000  0.17240813 -0.00000000       0.000
  -0.00000000  0.18318373 -0.00000000       0.000
   0.01017696  0.18318373 -0.00000000       0.000
   0.02035391  0.18318373 -0.00000000       0.000
   0.03053050  0.18318373 -0.00000000       0.000
   0.04070746  0.18318373  0.00000000       0.000
   0.05088441  0.18318373 -0.00000000       0.000
   0.06106137  0.18318373 -0.00000000       0.000
   0.07123796  0.18318373  0.00000000       0.000
   0.08141491  0.18318373  0.00000000       0.000
   0.09159187  0.18318373 -0.00000000       0.000
   0.09922440  0.17555120 -0.00000000       0.000
   0.10685730  0.16791830 -0.00000000       0.000
   0.11448983  0.16028577 -0.00000000       0.000
   0.12212237  0.15265323 -0.00000000       0.000
   0.12975527  0.14502033 -0.00000000       0.000
   0.13738780  0.13738780 -0.00000000       0.000
 
 k-points in reciprocal lattice and weights: KPOINTS created by Atomic Simulation Env
   0.00000000  0.00000000  0.00000000       0.016
  -0.04579600  0.04579600  0.04579600       0.125
  -0.09159200  0.09159200  0.09159200       0.062
   0.00000000  0.00000000  0.09159200       0.094
  -0.04579600  0.04579600  0.13738800       0.375
   0.09159200 -0.09159200  0.00000000       0.188
   0.00000000  0.00000000  0.18318400       0.047
   0.18318400 -0.09159200  0.00000000       0.094
   0.50000000  0.25000000  0.75000000       0.000
   0.50000000  0.27083300  0.72916700       0.000
   0.50000000  0.29166700  0.70833300       0.000
   0.50000000  0.31250000  0.68750000       0.000
   0.50000000  0.33333300  0.66666700       0.000
   0.50000000  0.35416700  0.64583300       0.000
   0.50000000  0.37500000  0.62500000       0.000
   0.50000000  0.39583300  0.60416700       0.000
   0.50000000  0.41666700  0.58333300       0.000
   0.50000000  0.43750000  0.56250000       0.000
   0.50000000  0.45833300  0.54166700       0.000
   0.50000000  0.47916700  0.52083300       0.000
   0.50000000  0.50000000  0.50000000       0.000
   0.46666700  0.46666700  0.46666700       0.000
   0.43333300  0.43333300  0.43333300       0.000
   0.40000000  0.40000000  0.40000000       0.000
   0.36666700  0.36666700  0.36666700       0.000
   0.33333300  0.33333300  0.33333300       0.000
   0.30000000  0.30000000  0.30000000       0.000
   0.26666700  0.26666700  0.26666700       0.000
   0.23333300  0.23333300  0.23333300       0.000
   0.20000000  0.20000000  0.20000000       0.000
   0.16666700  0.16666700  0.16666700       0.000
   0.13333300  0.13333300  0.13333300       0.000
   0.10000000  0.10000000  0.10000000       0.000
   0.06666700  0.06666700  0.06666700       0.000
   0.03333300  0.03333300  0.03333300       0.000
   0.00000000  0.00000000  0.00000000       0.000
   0.02941200  0.00000000  0.02941200       0.000
   0.05882400  0.00000000  0.05882400       0.000
   0.08823500  0.00000000  0.08823500       0.000
   0.11764700  0.00000000  0.11764700       0.000
   0.14705900  0.00000000  0.14705900       0.000
   0.17647100  0.00000000  0.17647100       0.000
   0.20588200  0.00000000  0.20588200       0.000
   0.23529400  0.00000000  0.23529400       0.000
   0.26470600  0.00000000  0.26470600       0.000
   0.29411800  0.00000000  0.29411800       0.000
   0.32352900  0.00000000  0.32352900       0.000
   0.35294100  0.00000000  0.35294100       0.000
   0.38235300  0.00000000  0.38235300       0.000
   0.41176500  0.00000000  0.41176500       0.000
   0.44117600  0.00000000  0.44117600       0.000
   0.47058800  0.00000000  0.47058800       0.000
   0.50000000  0.00000000  0.50000000       0.000
   0.50000000  0.02777800  0.52777800       0.000
   0.50000000  0.05555600  0.55555600       0.000
   0.50000000  0.08333300  0.58333300       0.000
   0.50000000  0.11111100  0.61111100       0.000
   0.50000000  0.13888900  0.63888900       0.000
   0.50000000  0.16666700  0.66666700       0.000
   0.50000000  0.19444400  0.69444400       0.000
   0.50000000  0.22222200  0.72222200       0.000
   0.50000000  0.25000000  0.75000000       0.000
   0.47916700  0.27083300  0.75000000       0.000
   0.45833300  0.29166700  0.75000000       0.000
   0.43750000  0.31250000  0.75000000       0.000
   0.41666700  0.33333300  0.75000000       0.000
   0.39583300  0.35416700  0.75000000       0.000
   0.37500000  0.37500000  0.75000000       0.000
 
 position of ions in fractional coordinates (direct lattice) 
   0.00000000  0.00000000  0.00000000
   0.25000000  0.25000000  0.25000000
 
 position of ions in cartesian coordinates  (Angst):
   0.00000000  0.00000000  0.00000000
   1.36475000  1.36475000  1.36475000
 


--------------------------------------------------------------------------------------------------------


 k-point  1 :   0.0000 0.0000 0.0000  plane waves:    1037
 k-point  2 :  -0.0458 0.0458 0.0458  plane waves:    1010
 k-point  3 :  -0.0916 0.0916 0.0916  plane waves:    1019
 k-point  4 :   0.0000 0.0000 0.0916  plane waves:    1010
 k-point  5 :  -0.0458 0.0458 0.1374  plane waves:    1012
 k-point  6 :   0.0916-0.0916 0.0000  plane waves:    1007
 k-point  7 :   0.0000 0.0000 0.1832  plane waves:    1013
 k-point  8 :   0.1832-0.0916 0.0000  plane waves:    1023
 k-point  9 :   0.5000 0.2500 0.7500  plane waves:    1036
 k-point 10 :   0.5000 0.2708 0.7292  plane waves:    1042
 k-point 11 :   0.5000 0.2917 0.7083  plane waves:    1036
 k-point 12 :   0.5000 0.3125 0.6875  plane waves:    1044
 k-point 13 :   0.5000 0.3333 0.6667  plane waves:    1042
 k-point 14 :   0.5000 0.3542 0.6458  plane waves:    1038
 k-point 15 :   0.5000 0.3750 0.6250  plane waves:    1042
 k-point 16 :   0.5000 0.3958 0.6042  plane waves:    1040
 k-point 17 :   0.5000 0.4167 0.5833  plane waves:    1034
 k-point 18 :   0.5000 0.4375 0.5625  plane waves:    1026
 k-point 19 :   0.5000 0.4583 0.5417  plane waves:    1034
 k-point 20 :   0.5000 0.4792 0.5208  plane waves:    1038
 k-point 21 :   0.5000 0.5000 0.5000  plane waves:    1056
 k-point 22 :   0.4667 0.4667 0.4667  plane waves:    1038
 k-point 23 :   0.4333 0.4333 0.4333  plane waves:    1038
 k-point 24 :   0.4000 0.4000 0.4000  plane waves:    1038
 k-point 25 :   0.3667 0.3667 0.3667  plane waves:    1035
 k-point 26 :   0.3333 0.3333 0.3333  plane waves:    1044
 k-point 27 :   0.3000 0.3000 0.3000  plane waves:    1023
 k-point 28 :   0.2667 0.2667 0.2667  plane waves:    1023
 k-point 29 :   0.2333 0.2333 0.2333  plane waves:    1019
 k-point 30 :   0.2000 0.2000 0.2000  plane waves:    1007
 k-point 31 :   0.1667 0.1667 0.1667  plane waves:    1013
 k-point 32 :   0.1333 0.1333 0.1333  plane waves:    1007
 k-point 33 :   0.1000 0.1000 0.1000  plane waves:    1007
 k-point 34 :   0.0667 0.0667 0.0667  plane waves:    1010
 k-point 35 :   0.0333 0.0333 0.0333  plane waves:    1001
 k-point 36 :   0.0000 0.0000 0.0000  plane waves:    1037
 k-point 37 :   0.0294 0.0000 0.0294  plane waves:    1006
 k-point 38 :   0.0588 0.0000 0.0588  plane waves:    1010
 k-point 39 :   0.0882 0.0000 0.0882  plane waves:    1010
 k-point 40 :   0.1176 0.0000 0.1176  plane waves:    1006
 k-point 41 :   0.1471 0.0000 0.1471  plane waves:    1010
 k-point 42 :   0.1765 0.0000 0.1765  plane waves:    1018
 k-point 43 :   0.2059 0.0000 0.2059  plane waves:    1010
 k-point 44 :   0.2353 0.0000 0.2353  plane waves:    1022
 k-point 45 :   0.2647 0.0000 0.2647  plane waves:    1022
 k-point 46 :   0.2941 0.0000 0.2941  plane waves:    1022
 k-point 47 :   0.3235 0.0000 0.3235  plane waves:    1030
 k-point 48 :   0.3529 0.0000 0.3529  plane waves:    1030
 k-point 49 :   0.3824 0.0000 0.3824  plane waves:    1030
 k-point 50 :   0.4118 0.0000 0.4118  plane waves:    1034
 k-point 51 :   0.4412 0.0000 0.4412  plane waves:    1030
 k-point 52 :   0.4706 0.0000 0.4706  plane waves:    1034
 k-point 53 :   0.5000 0.0000 0.5000  plane waves:    1034
 k-point 54 :   0.5000 0.0278 0.5278  plane waves:    1034
 k-point 55 :   0.5000 0.0556 0.5556  plane waves:    1026
 k-point 56 :   0.5000 0.0833 0.5833  plane waves:    1038
 k-point 57 :   0.5000 0.1111 0.6111  plane waves:    1034
 k-point 58 :   0.5000 0.1389 0.6389  plane waves:    1036
 k-point 59 :   0.5000 0.1667 0.6667  plane waves:    1040
 k-point 60 :   0.5000 0.1944 0.6944  plane waves:    1036
 k-point 61 :   0.5000 0.2222 0.7222  plane waves:    1038
 k-point 62 :   0.5000 0.2500 0.7500  plane waves:    1036
 k-point 63 :   0.4792 0.2708 0.7500  plane waves:    1042
 k-point 64 :   0.4583 0.2917 0.7500  plane waves:    1037
 k-point 65 :   0.4375 0.3125 0.7500  plane waves:    1039
 k-point 66 :   0.4167 0.3333 0.7500  plane waves:    1029
 k-point 67 :   0.3958 0.3542 0.7500  plane waves:    1033
 k-point 68 :   0.3750 0.3750 0.7500  plane waves:    1021

 maximum and minimum number of plane-waves per node :      1056     1001

 maximum number of plane-waves:      1056
 maximum index in each direction: 
   IXMAX=    7   IYMAX=    7   IZMAX=    7
   IXMIN=   -7   IYMIN=   -7   IZMIN=   -7

 WARNING: aliasing errors must be expected set NGX to  30 to avoid them
 WARNING: aliasing errors must be expected set NGY to  30 to avoid them
 WARNING: aliasing errors must be expected set NGZ to  30 to avoid them
 aliasing errors are usually negligible using standard VASP settings
 and one can safely disregard these warnings

 serial   3D FFT for wavefunctions
 parallel 3D FFT for charge:
    minimum data exchange during FFTs selected (reduces bandwidth)


 total amount of memory used by VASP on root node    53899. kBytes
========================================================================

   base      :      30000. kBytes
   nonl-proj :       4629. kBytes
   fftplans  :       3916. kBytes
   grid      :       6018. kBytes
   one-center:          6. kBytes
   wavefun   :       9330. kBytes
 
     INWAV:  cpu time    0.0143: real time    0.0143
 Broyden mixing: mesh for mixing (old mesh)
   NGX = 15   NGY = 15   NGZ = 15
  (NGX  = 48   NGY  = 48   NGZ  = 48)
  gives a total of   3375 points

 charge density for first step will be calculated from the start-wavefunctions


--------------------------------------------------------------------------------------------------------


 Maximum index for augmentation-charges        11033 (set IRDMAX)


--------------------------------------------------------------------------------------------------------


 initial charge from wavefunction
 First call to EWALD:  gamma=   0.515
 Maximum number of real-space cells 3x 3x 3
 Maximum number of reciprocal cells 3x 3x 3

 FEWALD executed in parallel
    FEWALD:  cpu time    0.0011: real time    0.0011


----------------------------------------- Iteration    1(   1)  ---------------------------------------


    POTLOK:  cpu time    0.1639: real time    0.0414
    SETDIJ:  cpu time    0.0134: real time    0.0033
     EDDAV:  cpu time    2.5600: real time    0.6558
       DOS:  cpu time    0.0059: real time    0.0019
    CHARGE:  cpu time    0.0356: real time    0.0089
    MIXING:  cpu time    0.0071: real time    0.0018
    --------------------------------------------
      LOOP:  cpu time    2.7881: real time    0.7137

 eigenvalue-minimisations  :  1480
 total energy-change (2. order) : 0.2286164E+00  (-0.3705206E+02)
 number of electron       7.9999999 magnetization 
 augmentation part       -0.3757378 magnetization 

 Broyden mixing:
  rms(total) = 0.30306E+01    rms(broyden)= 0.30306E+01
  rms(prec ) = 0.30814E+01
  weight for this iteration     100.00

 Free energy of the ion-electron system (eV)
  ---------------------------------------------------
  alpha Z        PSCENC =         3.31081721
  Ewald energy   TEWEN  =      -227.34932045
  -Hartree energ DENC   =       -15.21758521
  -exchange      EXHF   =         0.00000000
  -V(xc)+E(xc)   XCENC  =       -16.94291004
  PAW double counting   =      6828.55937601    -6794.04767956
  entropy T*S    EENTRO =        -0.00000000
  eigenvalues    EBANDS =        16.76502680
  atomic energy  EATOM  =       205.15089164
  Solvation  Ediel_sol  =         0.00000000
  ---------------------------------------------------
  free energy    TOTEN  =         0.22861639 eV

  energy without entropy =        0.22861639  energy(sigma->0) =        0.22861639


--------------------------------------------------------------------------------------------------------




----------------------------------------- Iteration    1(   2)  ---------------------------------------


    POTLOK:  cpu time    0.1537: real time    0.0386
    SETDIJ:  cpu time    0.0127: real time    0.0032
     EDDAV:  cpu time    2.1467: real time    0.5392
       DOS:  cpu time    0.0008: real time    0.0002
    CHARGE:  cpu time    0.0337: real time    0.0084
    MIXING:  cpu time    0.0075: real time    0.0019
    --------------------------------------------
      LOOP:  cpu time    2.3573: real time    0.5920

 eigenvalue-minimisations  :  1160
 total energy-change (2. order) :-0.3335654E+00  (-0.4177799E+00)
 number of electron       7.9999999 magnetization 
 augmentation part       -0.4015592 magnetization 

 Broyden mixing:
  rms(total) = 0.20473E+01    rms(broyden)= 0.20473E+01
  rms(prec ) = 0.20770E+01
  weight for this iteration     100.00

 eigenvalues of (default mixing * dielectric matrix)
  average eigenvalue GAMMA=   2.5731
  2.5731

 Free energy of the ion-electron system (eV)
  ---------------------------------------------------
  alpha Z        PSCENC =         3.31081721
  Ewald energy   TEWEN  =      -227.34932045
  -Hartree energ DENC   =       -16.52968607
  -exchange      EXHF   =         0.00000000
  -V(xc)+E(xc)   XCENC  =       -16.72407615
  PAW double counting   =      4599.06384808    -4564.62262004
  entropy T*S    EENTRO =        -0.00000000
  eigenvalues    EBANDS =        17.59519679
  atomic energy  EATOM  =       205.15089164
  Solvation  Ediel_sol  =         0.00000000
  ---------------------------------------------------
  free energy    TOTEN  =        -0.10494900 eV

  energy without entropy =       -0.10494900  energy(sigma->0) =       -0.10494900


--------------------------------------------------------------------------------------------------------




----------------------------------------- Iteration    1(   3)  ---------------------------------------


    POTLOK:  cpu time    0.1665: real time    0.0486
    SETDIJ:  cpu time    0.0137: real time    0.0035
     EDDAV:  cpu time    2.9543: real time    0.7870
       DOS:  cpu time    0.0008: real time    0.0002
    CHARGE:  cpu time    0.0338: real time    0.0085
    MIXING:  cpu time    0.0081: real time    0.0021
    --------------------------------------------
      LOOP:  cpu time    3.1847: real time    0.8521

 eigenvalue-minimisations  :  1680
 total energy-change (2. order) : 0.5026603E-01  (-0.2216948E-01)
 number of electron       7.9999999 magnetization 
 augmentation part       -0.3924255 magnetization 

 Broyden mixing:
  rms(total) = 0.52148E-01    rms(broyden)= 0.52148E-01
  rms(prec ) = 0.73765E-01
  weight for this iteration     100.00

 eigenvalues of (default mixing * dielectric matrix)
  average eigenvalue GAMMA=   1.7416
  0.9849  2.4982

 Free energy of the ion-electron system (eV)
  ---------------------------------------------------
  alpha Z        PSCENC =         3.31081721
  Ewald energy   TEWEN  =      -227.34932045
  -Hartree energ DENC   =       -19.01924218
  -exchange      EXHF   =         0.00000000
  -V(xc)+E(xc)   XCENC  =       -16.43096886
  PAW double counting   =       795.67648736     -761.40588738
  entropy T*S    EENTRO =        -0.00000000
  eigenvalues    EBANDS =        20.01253969
  atomic energy  EATOM  =       205.15089164
  Solvation  Ediel_sol  =         0.00000000
  ---------------------------------------------------
  free energy    TOTEN  =        -0.05468298 eV

  energy without entropy =       -0.05468298  energy(sigma->0) =       -0.05468298


--------------------------------------------------------------------------------------------------------




----------------------------------------- Iteration    1(   4)  ---------------------------------------


    POTLOK:  cpu time    0.1536: real time    0.0386
    SETDIJ:  cpu time    0.0122: real time    0.0031
     EDDAV:  cpu time    2.2168: real time    0.5554
       DOS:  cpu time    0.0009: real time    0.0002
    CHARGE:  cpu time    0.0328: real time    0.0082
    MIXING:  cpu time    0.0077: real time    0.0019
    --------------------------------------------
      LOOP:  cpu time    2.4293: real time    0.6090

 eigenvalue-minimisations  :  1288
 total energy-change (2. order) : 0.7201969E-03  (-0.2404342E-03)
 number of electron       7.9999999 magnetization 
 augmentation part       -0.3931685 magnetization 

 Broyden mixing:
  rms(total) = 0.12292E-01    rms(broyden)= 0.12292E-01
  rms(prec ) = 0.27290E-01
  weight for this iteration     100.00

 eigenvalues of (default mixing * dielectric matrix)
  average eigenvalue GAMMA=   1.9238
  0.9999  2.5683  2.2032

 Free energy of the ion-electron system (eV)
  ---------------------------------------------------
  alpha Z        PSCENC =         3.31081721
  Ewald energy   TEWEN  =      -227.34932045
  -Hartree energ DENC   =       -18.86415640
  -exchange      EXHF   =         0.00000000
  -V(xc)+E(xc)   XCENC  =       -16.44693324
  PAW double counting   =       849.63739508     -815.34984421
  entropy T*S    EENTRO =        -0.00000000
  eigenvalues    EBANDS =        19.85718760
  atomic energy  EATOM  =       205.15089164
  Solvation  Ediel_sol  =         0.00000000
  ---------------------------------------------------
  free energy    TOTEN  =        -0.05396278 eV

  energy without entropy =       -0.05396278  energy(sigma->0) =       -0.05396278


--------------------------------------------------------------------------------------------------------




----------------------------------------- Iteration    1(   5)  ---------------------------------------


    POTLOK:  cpu time    0.1585: real time    0.0398
    SETDIJ:  cpu time    0.0122: real time    0.0030
     EDDAV:  cpu time    2.6693: real time    0.6792
       DOS:  cpu time    0.0009: real time    0.0002
    CHARGE:  cpu time    0.0330: real time    0.0083
    MIXING:  cpu time    0.0081: real time    0.0020
    --------------------------------------------
      LOOP:  cpu time    2.8873: real time    0.7342

 eigenvalue-minimisations  :  1592
 total energy-change (2. order) : 0.1000516E-03  (-0.9739872E-04)
 number of electron       7.9999999 magnetization 
 augmentation part       -0.3938141 magnetization 

 Broyden mixing:
  rms(total) = 0.23021E-02    rms(broyden)= 0.23021E-02
  rms(prec ) = 0.32142E-02
  weight for this iteration     100.00

 eigenvalues of (default mixing * dielectric matrix)
  average eigenvalue GAMMA=   1.8191
  2.4582  2.3395  1.0016  1.4769

 Free energy of the ion-electron system (eV)
  ---------------------------------------------------
  alpha Z        PSCENC =         3.31081721
  Ewald energy   TEWEN  =      -227.34932045
  -Hartree energ DENC   =       -18.75431919
  -exchange      EXHF   =         0.00000000
  -V(xc)+E(xc)   XCENC  =       -16.45695799
  PAW double counting   =       852.62238014     -818.31863638
  entropy T*S    EENTRO =        -0.00000000
  eigenvalues    EBANDS =        19.74128229
  atomic energy  EATOM  =       205.15089164
  Solvation  Ediel_sol  =         0.00000000
  ---------------------------------------------------
  free energy    TOTEN  =        -0.05386273 eV

  energy without entropy =       -0.05386273  energy(sigma->0) =       -0.05386273


--------------------------------------------------------------------------------------------------------




----------------------------------------- Iteration    1(   6)  ---------------------------------------


    POTLOK:  cpu time    0.1533: real time    0.0385
    SETDIJ:  cpu time    0.0122: real time    0.0031
     EDDAV:  cpu time    1.7972: real time    0.4508
       DOS:  cpu time    0.0009: real time    0.0002
    --------------------------------------------
      LOOP:  cpu time    1.9696: real time    0.4945

 eigenvalue-minimisations  :   944
 total energy-change (2. order) :-0.1092348E-04  (-0.9868754E-06)
 number of electron       7.9999999 magnetization 
 augmentation part       -0.3938141 magnetization 

 Free energy of the ion-electron system (eV)
  ---------------------------------------------------
  alpha Z        PSCENC =         3.31081721
  Ewald energy   TEWEN  =      -227.34932045
  -Hartree energ DENC   =       -18.75860177
  -exchange      EXHF   =         0.00000000
  -V(xc)+E(xc)   XCENC  =       -16.45644966
  PAW double counting   =       856.18931790     -821.88507440
  entropy T*S    EENTRO =        -0.00000000
  eigenvalues    EBANDS =        19.74454588
  atomic energy  EATOM  =       205.15089164
  Solvation  Ediel_sol  =         0.00000000
  ---------------------------------------------------
  free energy    TOTEN  =        -0.05387365 eV

  energy without entropy =       -0.05387365  energy(sigma->0) =       -0.05387365


--------------------------------------------------------------------------------------------------------




 average (electrostatic) potential at core
  the test charge radii are     0.9892
  (the norm of the test charge is              1.0000)
       1 -82.3502       2 -82.3502
 
 
 
 E-fermi :   6.2782     XC(G=0):  -9.2858     alpha+bet :-11.7946


 k-point     1 :       0.0000    0.0000    0.0000
  band No.  band energies     occupation 
      1      -5.8507      2.00000
      2       6.1695      2.00000
      3       6.1695      2.00000
      4       6.1695      2.00000
      5       8.4501      0.00000
      6       8.4501      0.00000
      7       8.4501      0.00000
      8       9.3116      0.00000

 k-point     2 :      -0.0458    0.0458    0.0458
  band No.  band energies     occupation 
      1      -5.7495      2.00000
      2       5.3396      2.00000
      3       5.8240      2.00000
      4       5.9603      2.00000
      5       8.3446      0.00000
      6       8.7741      0.00000
      7       8.9030      0.00000
      8       9.9775      0.00000

 k-point     3 :      -0.0916    0.0916    0.0916
  band No.  band energies     occupation 
      1      -5.4482      2.00000
      2       3.9184      2.00000
      3       5.2000      2.00000
      4       5.4014      2.00000
      5       8.1449      0.00000
      6       9.2434      0.00000
      7       9.7898      0.00000
      8      10.8553      0.00000

 k-point     4 :       0.0000    0.0000    0.0916
  band No.  band energies     occupation 
      1      -5.7404      2.00000
      2       5.1167      2.00000
      3       5.9829      2.00000
      4       5.9829      2.00000
      5       8.4899      0.00000
      6       8.7162      0.00000
      7       8.7162      0.00000
      8      10.1169      0.00000

 k-point     5 :      -0.0458    0.0458    0.1374
  band No.  band energies     occupation 
      1      -5.5303      2.00000
      2       4.1870      2.00000
      3       5.1458      2.00000
      4       5.8243      2.00000
      5       8.4109      0.00000
      6       8.9712      0.00000
      7       9.3848      0.00000
      8      10.9396      0.00000

 k-point     6 :       0.0916   -0.0916    0.0000
  band No.  band energies     occupation 
      1      -5.5577      2.00000
      2       4.3069      2.00000
      3       5.0669      2.00000
      4       6.0230      2.00000
      5       8.7499      0.00000
      6       8.8694      0.00000
      7       8.9649      0.00000
      8      10.9699      0.00000

 k-point     7 :       0.0000    0.0000    0.1832
  band No.  band energies     occupation 
      1      -5.4136      2.00000
      2       3.3886      2.00000
      3       5.6195      2.00000
      4       5.6195      2.00000
      5       8.1743      0.00000
      6       9.2009      0.00000
      7       9.2009      0.00000
      8      11.6903      0.00000

 k-point     8 :       0.1832   -0.0916    0.0000
  band No.  band energies     occupation 
      1      -5.1623      2.00000
      2       2.7958      2.00000
      3       4.4833      2.00000
      4       5.7300      2.00000
      5       8.6298      0.00000
      6       9.1526      0.00000
      7       9.5471      0.00000
      8      11.7166      0.00000

 k-point     9 :       0.5000    0.2500    0.7500
  band No.  band energies     occupation 
      1      -1.5025      2.00000
      2      -1.5025      2.00000
      3       2.1062      2.00000
      4       2.1062      2.00000
      5      10.0992      0.00000
      6      10.0992      0.00000
      7      10.8524      0.00000
      8      10.8524      0.00000

 k-point    10 :       0.5000    0.2708    0.7292
  band No.  band energies     occupation 
      1      -1.7747      2.00000
      2      -1.2412      2.00000
      3       1.9270      2.00000
      4       2.3438      2.00000
      5       9.8472      0.00000
      6      10.1606      0.00000
      7      10.8026      0.00000
      8      11.1547      0.00000

 k-point    11 :       0.5000    0.2917    0.7083
  band No.  band energies     occupation 
      1      -2.0434      2.00000
      2      -1.0112      2.00000
      3       1.8287      2.00000
      4       2.6223      2.00000
      5       9.5867      0.00000
      6       9.9481      0.00000
      7      11.0875      0.00000
      8      11.5277      0.00000

 k-point    12 :       0.5000    0.3125    0.6875
  band No.  band energies     occupation 
      1      -2.2996      2.00000
      2      -0.8367      2.00000
      3       1.8363      2.00000
      4       2.9282      2.00000
      5       9.3557      0.00000
      6       9.6797      0.00000
      7      11.4879      0.00000
      8      11.9331      0.00000

 k-point    13 :       0.5000    0.3333    0.6667
  band No.  band energies     occupation 
      1      -2.5370      2.00000
      2      -0.7343      2.00000
      3       1.9668      2.00000
      4       3.2494      2.00000
      5       9.1653      0.00000
      6       9.4171      0.00000
      7      11.9404      0.00000
      8      12.3584      0.00000

 k-point    14 :       0.5000    0.3542    0.6458
  band No.  band energies     occupation 
      1      -2.7518      2.00000
      2      -0.7018      2.00000
      3       2.2173      2.00000
      4       3.5742      2.00000
      5       9.0217      0.00000
      6       9.1700      0.00000
      7      12.4320      0.00000
      8      12.6311      0.00000

 k-point    15 :       0.5000    0.3750    0.6250
  band No.  band energies     occupation 
      1      -2.9415      2.00000
      2      -0.7200      2.00000
      3       2.5665      2.00000
      4       3.8901      2.00000
      5       8.9298      0.00000
      6       8.9374      0.00000
      7      11.8160      0.00000
      8      12.9654      0.00000

 k-point    16 :       0.5000    0.3958    0.6042
  band No.  band energies     occupation 
      1      -3.1041      2.00000
      2      -0.7658      2.00000
      3       2.9872      2.00000
      4       4.1835      2.00000
      5       8.7115      0.00000
      6       8.8927      0.00000
      7      11.0524      0.00000
      8      13.5225      0.00000

 k-point    17 :       0.5000    0.4167    0.5833
  band No.  band energies     occupation 
      1      -3.2385      2.00000
      2      -0.8209      2.00000
      3       3.4536      2.00000
      4       4.4411      2.00000
      5       8.4747      0.00000
      6       8.9094      0.00000
      7      10.3699      0.00000
      8      13.7926      0.00000

 k-point    18 :       0.5000    0.4375    0.5625
  band No.  band energies     occupation 
      1      -3.3439      2.00000
      2      -0.8729      2.00000
      3       3.9386      2.00000
      4       4.6509      2.00000
      5       8.1993      0.00000
      6       8.9710      0.00000
      7       9.8146      0.00000
      8      13.7271      0.00000

 k-point    19 :       0.5000    0.4583    0.5417
  band No.  band energies     occupation 
      1      -3.4195      2.00000
      2      -0.9144      2.00000
      3       4.4035      2.00000
      4       4.8045      2.00000
      5       7.8728      0.00000
      6       9.0562      0.00000
      7       9.4322      0.00000
      8      13.4930      0.00000

 k-point    20 :       0.5000    0.4792    0.5208
  band No.  band energies     occupation 
      1      -3.4650      2.00000
      2      -0.9409      2.00000
      3       4.7757      2.00000
      4       4.8974      2.00000
      5       7.5620      0.00000
      6       9.1317      0.00000
      7       9.2254      0.00000
      8      13.2823      0.00000

 k-point    21 :       0.5000    0.5000    0.5000
  band No.  band energies     occupation 
      1      -3.4802      2.00000
      2      -0.9499      2.00000
      3       4.9285      2.00000
      4       4.9285      2.00000
      5       7.4242      0.00000
      6       9.1621      0.00000
      7       9.1621      0.00000
      8      13.2012      0.00000

 k-point    22 :       0.4667    0.4667    0.4667
  band No.  band energies     occupation 
      1      -3.5456      2.00000
      2      -0.8568      2.00000
      3       4.9363      2.00000
      4       4.9363      2.00000
      5       7.4332      0.00000
      6       9.1726      0.00000
      7       9.1726      0.00000
      8      13.2173      0.00000

 k-point    23 :       0.4333    0.4333    0.4333
  band No.  band energies     occupation 
      1      -3.7177      2.00000
      2      -0.6019      2.00000
      3       4.9600      2.00000
      4       4.9600      2.00000
      5       7.4603      0.00000
      6       9.2027      0.00000
      7       9.2027      0.00000
      8      13.2645      0.00000

 k-point    24 :       0.4000    0.4000    0.4000
  band No.  band energies     occupation 
      1      -3.9499      2.00000
      2      -0.2320      2.00000
      3       4.9995      2.00000
      4       4.9995      2.00000
      5       7.5053      0.00000
      6       9.2490      0.00000
      7       9.2490      0.00000
      8      13.3373      0.00000

 k-point    25 :       0.3667    0.3667    0.3667
  band No.  band energies     occupation 
      1      -4.2058      2.00000
      2       0.2159      2.00000
      3       5.0548      2.00000
      4       5.0548      2.00000
      5       7.5678      0.00000
      6       9.3049      0.00000
      7       9.3049      0.00000
      8      13.4222      0.00000

 k-point    26 :       0.3333    0.3333    0.3333
  band No.  band energies     occupation 
      1      -4.4635      2.00000
      2       0.7190      2.00000
      3       5.1258      2.00000
      4       5.1258      2.00000
      5       7.6474      0.00000
      6       9.3605      0.00000
      7       9.3605      0.00000
      8      13.4789      0.00000

 k-point    27 :       0.3000    0.3000    0.3000
  band No.  band energies     occupation 
      1      -4.7106      2.00000
      2       1.2638      2.00000
      3       5.2120      2.00000
      4       5.2120      2.00000
      5       7.7430      0.00000
      6       9.4013      0.00000
      7       9.4013      0.00000
      8      13.3989      0.00000

 k-point    28 :       0.2667    0.2667    0.2667
  band No.  band energies     occupation 
      1      -4.9401      2.00000
      2       1.8414      2.00000
      3       5.3129      2.00000
      4       5.3129      2.00000
      5       7.8533      0.00000
      6       9.4097      0.00000
      7       9.4097      0.00000
      8      13.0493      0.00000

 k-point    29 :       0.2333    0.2333    0.2333
  band No.  band energies     occupation 
      1      -5.1478      2.00000
      2       2.4452      2.00000
      3       5.4272      2.00000
      4       5.4272      2.00000
      5       7.9758      0.00000
      6       9.3688      0.00000
      7       9.3688      0.00000
      8      12.5422      0.00000

 k-point    30 :       0.2000    0.2000    0.2000
  band No.  band energies     occupation 
      1      -5.3310      2.00000
      2       3.0687      2.00000
      3       5.5528      2.00000
      4       5.5528      2.00000
      5       8.1068      0.00000
      6       9.2706      0.00000
      7       9.2706      0.00000
      8      11.9820      0.00000

 k-point    31 :       0.1667    0.1667    0.1667
  band No.  band energies     occupation 
      1      -5.4881      2.00000
      2       3.7048      2.00000
      3       5.6864      2.00000
      4       5.6864      2.00000
      5       8.2403      0.00000
      6       9.1220      0.00000
      7       9.1220      0.00000
      8      11.4009      0.00000

 k-point    32 :       0.1333    0.1333    0.1333
  band No.  band energies     occupation 
      1      -5.6178      2.00000
      2       4.3429      2.00000
      3       5.8224      2.00000
      4       5.8224      2.00000
      5       8.3668      0.00000
      6       8.9430      0.00000
      7       8.9430      0.00000
      8      10.8162      0.00000

 k-point    33 :       0.1000    0.1000    0.1000
  band No.  band energies     occupation 
      1      -5.7193      2.00000
      2       4.9655      2.00000
      3       5.9524      2.00000
      4       5.9524      2.00000
      5       8.4704      0.00000
      6       8.7598      0.00000
      7       8.7598      0.00000
      8      10.2514      0.00000

 k-point    34 :       0.0667    0.0667    0.0667
  band No.  band energies     occupation 
      1      -5.7922      2.00000
      2       5.5384      2.00000
      3       6.0641      2.00000
      4       6.0641      2.00000
      5       8.5232      0.00000
      6       8.5999      0.00000
      7       8.5999      0.00000
      8       9.7553      0.00000

 k-point    35 :       0.0333    0.0333    0.0333
  band No.  band energies     occupation 
      1      -5.8361      2.00000
      2       5.9867      2.00000
      3       6.1415      2.00000
      4       6.1415      2.00000
      5       8.4897      0.00000
      6       8.4897      0.00000
      7       8.4950      0.00000
      8       9.4200      0.00000

 k-point    36 :       0.0000    0.0000    0.0000
  band No.  band energies     occupation 
      1      -5.8507      2.00000
      2       6.1695      2.00000
      3       6.1695      2.00000
      4       6.1695      2.00000
      5       8.4501      0.00000
      6       8.4501      0.00000
      7       8.4501      0.00000
      8       9.3116      0.00000

 k-point    37 :       0.0294    0.0000    0.0294
  band No.  band energies     occupation 
      1      -5.8355      2.00000
      2       6.0634      2.00000
      3       6.0964      2.00000
      4       6.0964      2.00000
      5       8.4089      0.00000
      6       8.5417      0.00000
      7       8.5417      0.00000
      8       9.4152      0.00000

 k-point    38 :       0.0588    0.0000    0.0588
  band No.  band energies     occupation 
      1      -5.7899      2.00000
      2       5.7809      2.00000
      3       5.9060      2.00000
      4       5.9060      2.00000
      5       8.2925      0.00000
      6       8.7876      0.00000
      7       8.7876      0.00000
      8       9.6829      0.00000

 k-point    39 :       0.0882    0.0000    0.0882
  band No.  band energies     occupation 
      1      -5.7141      2.00000
      2       5.3879      2.00000
      3       5.6506      2.00000
      4       5.6506      2.00000
      5       8.1190      0.00000
      6       9.1347      0.00000
      7       9.1347      0.00000
      8      10.0186      0.00000

 k-point    40 :       0.1176    0.0000    0.1176
  band No.  band energies     occupation 
      1      -5.6081      2.00000
      2       4.9335      2.00000
      3       5.3690      2.00000
      4       5.3690      2.00000
      5       7.9093      0.00000
      6       9.5439      0.00000
      7       9.5439      0.00000
      8      10.2867      0.00000

 k-point    41 :       0.1471    0.0000    0.1471
  band No.  band energies     occupation 
      1      -5.4721      2.00000
      2       4.4455      2.00000
      3       5.0829      2.00000
      4       5.0829      2.00000
      5       7.6820      0.00000
      6       9.9924      0.00000
      7       9.9924      0.00000
      8      10.2956      0.00000

 k-point    42 :       0.1765    0.0000    0.1765
  band No.  band energies     occupation 
      1      -5.3065      2.00000
      2       3.9385      2.00000
      3       4.8046      2.00000
      4       4.8046      2.00000
      5       7.4517      0.00000
      6      10.0022      0.00000
      7      10.4670      0.00000
      8      10.4670      0.00000

 k-point    43 :       0.2059    0.0000    0.2059
  band No.  band energies     occupation 
      1      -5.1115      2.00000
      2       3.4204      2.00000
      3       4.5409      2.00000
      4       4.5409      2.00000
      5       7.2289      0.00000
      6       9.5660      0.00000
      7      10.9601      0.00000
      8      10.9601      0.00000

 k-point    44 :       0.2353    0.0000    0.2353
  band No.  band energies     occupation 
      1      -4.8875      2.00000
      2       2.8957      2.00000
      3       4.2960      2.00000
      4       4.2960      2.00000
      5       7.0212      0.00000
      6       9.0970      0.00000
      7      11.4666      0.00000
      8      11.4666      0.00000

 k-point    45 :       0.2647    0.0000    0.2647
  band No.  band energies     occupation 
      1      -4.6351      2.00000
      2       2.3676      2.00000
      3       4.0728      2.00000
      4       4.0728      2.00000
      5       6.8342      0.00000
      6       8.6401      0.00000
      7      11.9834      0.00000
      8      11.9834      0.00000

 k-point    46 :       0.2941    0.0000    0.2941
  band No.  band energies     occupation 
      1      -4.3548      2.00000
      2       1.8387      2.00000
      3       3.8729      2.00000
      4       3.8729      2.00000
      5       6.6721      0.00000
      6       8.2140      0.00000
      7      12.5084      0.00000
      8      12.5084      0.00000

 k-point    47 :       0.3235    0.0000    0.3235
  band No.  band energies     occupation 
      1      -4.0472      2.00000
      2       1.3111      2.00000
      3       3.6979      2.00000
      4       3.6979      2.00000
      5       6.5381      0.00000
      6       7.8276      0.00000
      7      13.0403      0.00000
      8      13.0403      0.00000

 k-point    48 :       0.3529    0.0000    0.3529
  band No.  band energies     occupation 
      1      -3.7132      2.00000
      2       0.7874      2.00000
      3       3.5485      2.00000
      4       3.5485      2.00000
      5       6.4348      0.00000
      6       7.4849      0.00000
      7      13.5783      0.00000
      8      13.5783      0.00000

 k-point    49 :       0.3824    0.0000    0.3824
  band No.  band energies     occupation 
      1      -3.3538      2.00000
      2       0.2701      2.00000
      3       3.4254      2.00000
      4       3.4254      2.00000
      5       6.3643      0.00000
      6       7.1877      0.00000
      7      14.1212      0.00000
      8      14.1212      0.00000

 k-point    50 :       0.4118    0.0000    0.4118
  band No.  band energies     occupation 
      1      -2.9699      2.00000
      2      -0.2383      2.00000
      3       3.3293      2.00000
      4       3.3293      2.00000
      5       6.3287      0.00000
      6       6.9360      0.00000
      7      14.6667      0.00000
      8      14.6667      0.00000

 k-point    51 :       0.4412    0.0000    0.4412
  band No.  band energies     occupation 
      1      -2.5629      2.00000
      2      -0.7353      2.00000
      3       3.2604      2.00000
      4       3.2604      2.00000
      5       6.3295      0.00000
      6       6.7295      0.00000
      7      15.2067      0.00000
      8      15.2067      0.00000

 k-point    52 :       0.4706    0.0000    0.4706
  band No.  band energies     occupation 
      1      -2.1342      2.00000
      2      -1.2184      2.00000
      3       3.2189      2.00000
      4       3.2189      2.00000
      5       6.3684      0.00000
      6       6.5669      0.00000
      7      15.7085      0.00000
      8      15.7085      0.00000

 k-point    53 :       0.5000    0.0000    0.5000
  band No.  band energies     occupation 
      1      -1.6854      2.00000
      2      -1.6854      2.00000
      3       3.2051      2.00000
      4       3.2051      2.00000
      5       6.4471      0.00000
      6       6.4471      0.00000
      7      15.9850      0.00000
      8      15.9851      0.00000

 k-point    54 :       0.5000    0.0278    0.5278
  band No.  band energies     occupation 
      1      -1.6804      2.00000
      2      -1.6804      2.00000
      3       3.1586      2.00000
      4       3.1586      2.00000
      5       6.5273      0.00000
      6       6.5273      0.00000
      7      15.8533      0.00000
      8      15.8535      0.00000

 k-point    55 :       0.5000    0.0556    0.5556
  band No.  band energies     occupation 
      1      -1.6660      2.00000
      2      -1.6660      2.00000
      3       3.0331      2.00000
      4       3.0331      2.00000
      5       6.7543      0.00000
      6       6.7543      0.00000
      7      15.4209      0.00000
      8      15.4209      0.00000

 k-point    56 :       0.5000    0.0833    0.5833
  band No.  band energies     occupation 
      1      -1.6433      2.00000
      2      -1.6433      2.00000
      3       2.8600      2.00000
      4       2.8600      2.00000
      5       7.0975      0.00000
      6       7.0975      0.00000
      7      14.7844      0.00000
      8      14.7844      0.00000

 k-point    57 :       0.5000    0.1111    0.6111
  band No.  band energies     occupation 
      1      -1.6146      2.00000
      2      -1.6146      2.00000
      3       2.6704      2.00000
      4       2.6704      2.00000
      5       7.5272      0.00000
      6       7.5272      0.00000
      7      14.0748      0.00000
      8      14.0748      0.00000

 k-point    58 :       0.5000    0.1389    0.6389
  band No.  band energies     occupation 
      1      -1.5830      2.00000
      2      -1.5830      2.00000
      3       2.4880      2.00000
      4       2.4880      2.00000
      5       8.0210      0.00000
      6       8.0210      0.00000
      7      13.3464      0.00000
      8      13.3464      0.00000

 k-point    59 :       0.5000    0.1667    0.6667
  band No.  band energies     occupation 
      1      -1.5522      2.00000
      2      -1.5522      2.00000
      3       2.3301      2.00000
      4       2.3301      2.00000
      5       8.5630      0.00000
      6       8.5630      0.00000
      7      12.6220      0.00000
      8      12.6220      0.00000

 k-point    60 :       0.5000    0.1944    0.6944
  band No.  band energies     occupation 
      1      -1.5261      2.00000
      2      -1.5261      2.00000
      3       2.2086      2.00000
      4       2.2086      2.00000
      5       9.1385      0.00000
      6       9.1385      0.00000
      7      11.9166      0.00000
      8      11.9166      0.00000

 k-point    61 :       0.5000    0.2222    0.7222
  band No.  band energies     occupation 
      1      -1.5086      2.00000
      2      -1.5086      2.00000
      3       2.1323      2.00000
      4       2.1323      2.00000
      5       9.7196      0.00000
      6       9.7196      0.00000
      7      11.2579      0.00000
      8      11.2579      0.00000

 k-point    62 :       0.5000    0.2500    0.7500
  band No.  band energies     occupation 
      1      -1.5025      2.00000
      2      -1.5025      2.00000
      3       2.1062      2.00000
      4       2.1062      2.00000
      5      10.0992      0.00000
      6      10.0992      0.00000
      7      10.8524      0.00000
      8      10.8524      0.00000

 k-point    63 :       0.4792    0.2708    0.7500
  band No.  band energies     occupation 
      1      -1.6775      2.00000
      2      -1.3396      2.00000
      3       1.9675      2.00000
      4       2.3024      2.00000
      5       9.5506      0.00000
      6      10.1535      0.00000
      7      11.1288      0.00000
      8      11.1313      0.00000

 k-point    64 :       0.4583    0.2917    0.7500
  band No.  band energies     occupation 
      1      -1.8211      2.00000
      2      -1.2291      2.00000
      3       1.8519      2.00000
      4       2.5811      2.00000
      5       8.8159      0.00000
      6      10.1099      0.00000
      7      11.5531      0.00000
      8      11.6724      0.00000

 k-point    65 :       0.4375    0.3125    0.7500
  band No.  band energies     occupation 
      1      -1.9331      2.00000
      2      -1.1610      2.00000
      3       1.7607      2.00000
      4       2.9147      2.00000
      5       8.1249      0.00000
      6      10.0504      0.00000
      7      12.0310      0.00000
      8      12.2703      0.00000

 k-point    66 :       0.4167    0.3333    0.7500
  band No.  band energies     occupation 
      1      -2.0132      2.00000
      2      -1.1230      2.00000
      3       1.6950      2.00000
      4       3.2567      2.00000
      5       7.5337      0.00000
      6      10.0005      0.00000
      7      12.5311      0.00000
      8      12.8979      0.00000

 k-point    67 :       0.3958    0.3542    0.7500
  band No.  band energies     occupation 
      1      -2.0613      2.00000
      2      -1.1046      2.00000
      3       1.6553      2.00000
      4       3.5328      2.00000
      5       7.1113      0.00000
      6       9.9687      0.00000
      7      13.0230      0.00000
      8      13.5428      0.00000

 k-point    68 :       0.3750    0.3750    0.7500
  band No.  band energies     occupation 
      1      -2.0773      2.00000
      2      -1.0993      2.00000
      3       1.6420      2.00000
      4       3.6435      2.00000
      5       6.9524      0.00000
      6       9.9578      0.00000
      7      13.3364      0.00000
      8      13.9344      0.00000


--------------------------------------------------------------------------------------------------------


 soft charge-density along one line, spin component           1
         0         1         2         3         4         5         6         7         8         9
 total charge-density along one line
 
 pseudopotential strength for first ion, spin component:           1
 18.335  25.579   0.000   0.000   0.000   0.000   0.000   0.000
 25.579  35.689   0.000   0.000   0.000   0.000   0.000   0.000
  0.000   0.000   4.170  -0.000  -0.000   7.769  -0.000  -0.000
  0.000   0.000  -0.000   4.170  -0.000  -0.000   7.769  -0.000
  0.000   0.000  -0.000  -0.000   4.170  -0.000  -0.000   7.769
  0.000   0.000   7.769  -0.000  -0.000  14.483  -0.000  -0.000
  0.000   0.000  -0.000   7.769  -0.000  -0.000  14.483  -0.000
  0.000   0.000  -0.000  -0.000   7.769  -0.000  -0.000  14.483
 total augmentation occupancy for first ion, spin component:           1
  7.488  -3.648  -0.000   0.000  -0.000   0.000  -0.000  -0.000
 -3.648   1.954   0.000   0.000  -0.000  -0.000  -0.000   0.000
 -0.000   0.000   2.485  -0.000   0.000  -0.390   0.000  -0.000
  0.000   0.000  -0.000   2.485  -0.000   0.000  -0.390   0.000
 -0.000   0.000   0.000  -0.000   2.485  -0.000   0.000  -0.390
 -0.000   0.000  -0.390   0.000  -0.000   0.065  -0.000   0.000
 -0.000   0.000   0.000  -0.390   0.000  -0.000   0.065   0.000
 -0.000  -0.000  -0.000   0.000  -0.390   0.000   0.000   0.065


------------------------ aborting loop because EDIFF is reached ----------------------------------------


    CHARGE:  cpu time    0.0334: real time    0.0084
    FORLOC:  cpu time    0.0087: real time    0.0022
    FORNL :  cpu time    0.2762: real time    0.0692
    STRESS:  cpu time    0.9127: real time    0.2289
    FORCOR:  cpu time    0.1627: real time    0.0408
    FORHAR:  cpu time    0.0351: real time    0.0088
    MIXING:  cpu time    0.0082: real time    0.0021
    OFIELD:  cpu time    0.0001: real time    0.0000

  FORCE on cell =-STRESS in cart. coord.  units (eV):
  Direction    XX          YY          ZZ          XY          YZ          ZX
  --------------------------------------------------------------------------------------
  Alpha Z     3.31082     3.31082     3.31082
  Ewald     -75.78314   -75.78314   -75.78314    -0.00000     0.00000    -0.00000
  Hartree     6.25588     6.25588     6.25588     0.00000     0.00000     0.00000
  E(xc)     -26.10715   -26.10715   -26.10715     0.00000     0.00000     0.00000
  Local     -31.77885   -31.77885   -31.77885     0.00001     0.00001     0.00001
  n-local    72.24486    73.10007    73.13807     1.08716     0.45214     2.41248
  augment    -9.88958    -9.88958    -9.88958    -0.00001    -0.00001    -0.00001
  Kinetic    67.94156    68.88959    68.84360    -1.11305     0.38331    -1.15903
  Fock        0.00000     0.00000     0.00000     0.00000     0.00000     0.00000
  -------------------------------------------------------------------------------------
  Total       7.39390     7.39390     7.39390     0.00000    -0.00000    -0.00000
  in kB     291.27606   291.27606   291.27606     0.00000    -0.00000    -0.00000
  external pressure =      291.28 kB  Pullay stress =        0.00 kB


 VOLUME and BASIS-vectors are now :
 -----------------------------------------------------------------------------
  energy-cutoff  :      500.00
  volume of cell :       40.67
      direct lattice vectors                 reciprocal lattice vectors
     0.000000000  2.729500000  2.729500000    -0.183183733  0.183183733  0.183183733
     2.729500000  0.000000000  2.729500000     0.183183733 -0.183183733  0.183183733
     2.729500000  2.729500000  0.000000000     0.183183733  0.183183733 -0.183183733

  length of vectors
     3.860095918  3.860095918  3.860095918     0.317283533  0.317283533  0.317283533


 FORCES acting on ions
    electron-ion (+dipol)            ewald-force                    non-local-force                 convergence-correction
 -----------------------------------------------------------------------------------------------
   0.950E-07 0.950E-07 0.872E-07   -.701E-14 0.904E-14 0.133E-13   -.117E-16 -.147E-16 -.269E-16   0.244E-09 0.244E-09 0.244E-09
   -.950E-07 -.950E-07 -.872E-07   0.702E-14 -.934E-14 -.128E-13   0.160E-16 0.130E-16 0.330E-16   -.244E-09 -.244E-09 -.244E-09
 -----------------------------------------------------------------------------------------------
   -.403E-13 0.510E-14 0.385E-13   0.905E-17 -.303E-15 0.502E-15   0.434E-17 -.173E-17 0.607E-17   0.573E-15 -.104E-14 -.108E-14
 
 
 POSITION                                       TOTAL-FORCE (eV/Angst)
 -----------------------------------------------------------------------------------
      0.00000      0.00000      0.00000        -0.000000     -0.000000     -0.000000
      1.36475      1.36475      1.36475         0.000000      0.000000      0.000000
 -----------------------------------------------------------------------------------
    total drift:                               -0.000000      0.000000      0.000000


--------------------------------------------------------------------------------------------------------



  FREE ENERGIE OF THE ION-ELECTRON SYSTEM (eV)
  ---------------------------------------------------
  free  energy   TOTEN  =        -0.05387365 eV

  energy  without entropy=       -0.05387365  energy(sigma->0) =       -0.05387365
 


--------------------------------------------------------------------------------------------------------


    POTLOK:  cpu time    0.1654: real time    0.0415


--------------------------------------------------------------------------------------------------------


 writing wavefunctions
     LOOP+:  cpu time   17.6618: real time    4.5486
    4ORBIT:  cpu time    0.0000: real time    0.0000

 total amount of memory used by VASP on root node    53899. kBytes
========================================================================

   base      :      30000. kBytes
   nonl-proj :       4629. kBytes
   fftplans  :       3916. kBytes
   grid      :       6018. kBytes
   one-center:          6. kBytes
   wavefun   :       9330. kBytes
 
  
  
 General timing and accounting informations for this job:
 ========================================================
  
                  Total CPU time used (sec):       18.086
                            User time (sec):       17.532
                          System time (sec):        0.553
                         Elapsed time (sec):        4.914
  
                   Maximum memory used (kb):    59486208.
                   Average memory used (kb):           0.
  
                          Minor page faults:        18722
                          Major page faults:           31
                 Voluntary context switches:            9
