<?xml version="1.0" encoding="ISO-8859-1"?>
<modeling>
 <generator>
  <i name="program" type="string">vasp </i>
  <i name="version" type="string">5.4.1  </i>
  <i name="subversion" type="string">24Jun15 (build Oct 13 2015 09:47:18) complex                          parallel </i>
  <i name="platform" type="string">IFC91_ompi </i>
  <i name="date" type="string">2016 02 03 </i>
  <i name="time" type="string">15:48:28 </i>
 </generator>
 <incar>
  <i type="string" name="SYSTEM"> Band structure</i>
  <i type="string" name="PREC">normal</i>
  <i type="int" name="NSW">     0</i>
  <i name="ENCUT">    500.00000000</i>
  <i type="int" name="ISMEAR">     0</i>
  <i name="SIGMA">      0.01000000</i>
  <v type="int" name="KPOINT_BSE">    -1     0     0     0</v>
  <i type="string" name="GGA"> PS</i>
 </incar>
 <kpoints>
  <varray name="kpointlist" >
   <v>       0.00000000       0.00000000       0.00000000 </v>
   <v>      -0.04579600       0.04579600       0.04579600 </v>
   <v>      -0.09159200       0.09159200       0.09159200 </v>
   <v>       0.00000000       0.00000000       0.09159200 </v>
   <v>      -0.04579600       0.04579600       0.13738800 </v>
   <v>       0.09159200      -0.09159200       0.00000000 </v>
   <v>       0.00000000       0.00000000       0.18318400 </v>
   <v>       0.18318400      -0.09159200       0.00000000 </v>
   <v>       0.50000000       0.25000000       0.75000000 </v>
   <v>       0.50000000       0.27083300       0.72916700 </v>
   <v>       0.50000000       0.29166700       0.70833300 </v>
   <v>       0.50000000       0.31250000       0.68750000 </v>
   <v>       0.50000000       0.33333300       0.66666700 </v>
   <v>       0.50000000       0.35416700       0.64583300 </v>
   <v>       0.50000000       0.37500000       0.62500000 </v>
   <v>       0.50000000       0.39583300       0.60416700 </v>
   <v>       0.50000000       0.41666700       0.58333300 </v>
   <v>       0.50000000       0.43750000       0.56250000 </v>
   <v>       0.50000000       0.45833300       0.54166700 </v>
   <v>       0.50000000       0.47916700       0.52083300 </v>
   <v>       0.50000000       0.50000000       0.50000000 </v>
   <v>       0.46666700       0.46666700       0.46666700 </v>
   <v>       0.43333300       0.43333300       0.43333300 </v>
   <v>       0.40000000       0.40000000       0.40000000 </v>
   <v>       0.36666700       0.36666700       0.36666700 </v>
   <v>       0.33333300       0.33333300       0.33333300 </v>
   <v>       0.30000000       0.30000000       0.30000000 </v>
   <v>       0.26666700       0.26666700       0.26666700 </v>
   <v>       0.23333300       0.23333300       0.23333300 </v>
   <v>       0.20000000       0.20000000       0.20000000 </v>
   <v>       0.16666700       0.16666700       0.16666700 </v>
   <v>       0.13333300       0.13333300       0.13333300 </v>
   <v>       0.10000000       0.10000000       0.10000000 </v>
   <v>       0.06666700       0.06666700       0.06666700 </v>
   <v>       0.03333300       0.03333300       0.03333300 </v>
   <v>       0.00000000       0.00000000       0.00000000 </v>
   <v>       0.02941200       0.00000000       0.02941200 </v>
   <v>       0.05882400       0.00000000       0.05882400 </v>
   <v>       0.08823500       0.00000000       0.08823500 </v>
   <v>       0.11764700       0.00000000       0.11764700 </v>
   <v>       0.14705900       0.00000000       0.14705900 </v>
   <v>       0.17647100       0.00000000       0.17647100 </v>
   <v>       0.20588200       0.00000000       0.20588200 </v>
   <v>       0.23529400       0.00000000       0.23529400 </v>
   <v>       0.26470600       0.00000000       0.26470600 </v>
   <v>       0.29411800       0.00000000       0.29411800 </v>
   <v>       0.32352900       0.00000000       0.32352900 </v>
   <v>       0.35294100       0.00000000       0.35294100 </v>
   <v>       0.38235300       0.00000000       0.38235300 </v>
   <v>       0.41176500       0.00000000       0.41176500 </v>
   <v>       0.44117600       0.00000000       0.44117600 </v>
   <v>       0.47058800       0.00000000       0.47058800 </v>
   <v>       0.50000000       0.00000000       0.50000000 </v>
   <v>       0.50000000       0.02777800       0.52777800 </v>
   <v>       0.50000000       0.05555600       0.55555600 </v>
   <v>       0.50000000       0.08333300       0.58333300 </v>
   <v>       0.50000000       0.11111100       0.61111100 </v>
   <v>       0.50000000       0.13888900       0.63888900 </v>
   <v>       0.50000000       0.16666700       0.66666700 </v>
   <v>       0.50000000       0.19444400       0.69444400 </v>
   <v>       0.50000000       0.22222200       0.72222200 </v>
   <v>       0.50000000       0.25000000       0.75000000 </v>
   <v>       0.47916700       0.27083300       0.75000000 </v>
   <v>       0.45833300       0.29166700       0.75000000 </v>
   <v>       0.43750000       0.31250000       0.75000000 </v>
   <v>       0.41666700       0.33333300       0.75000000 </v>
   <v>       0.39583300       0.35416700       0.75000000 </v>
   <v>       0.37500000       0.37500000       0.75000000 </v>
  </varray>
  <varray name="weights" >
   <v>       0.01562500 </v>
   <v>       0.12500000 </v>
   <v>       0.06250000 </v>
   <v>       0.09375000 </v>
   <v>       0.37500000 </v>
   <v>       0.18750000 </v>
   <v>       0.04687500 </v>
   <v>       0.09375000 </v>
   <v>       0.00000000 </v>
   <v>       0.00000000 </v>
   <v>       0.00000000 </v>
   <v>       0.00000000 </v>
   <v>       0.00000000 </v>
   <v>       0.00000000 </v>
   <v>       0.00000000 </v>
   <v>       0.00000000 </v>
   <v>       0.00000000 </v>
   <v>       0.00000000 </v>
   <v>       0.00000000 </v>
   <v>       0.00000000 </v>
   <v>       0.00000000 </v>
   <v>       0.00000000 </v>
   <v>       0.00000000 </v>
   <v>       0.00000000 </v>
   <v>       0.00000000 </v>
   <v>       0.00000000 </v>
   <v>       0.00000000 </v>
   <v>       0.00000000 </v>
   <v>       0.00000000 </v>
   <v>       0.00000000 </v>
   <v>       0.00000000 </v>
   <v>       0.00000000 </v>
   <v>       0.00000000 </v>
   <v>       0.00000000 </v>
   <v>       0.00000000 </v>
   <v>       0.00000000 </v>
   <v>       0.00000000 </v>
   <v>       0.00000000 </v>
   <v>       0.00000000 </v>
   <v>       0.00000000 </v>
   <v>       0.00000000 </v>
   <v>       0.00000000 </v>
   <v>       0.00000000 </v>
   <v>       0.00000000 </v>
   <v>       0.00000000 </v>
   <v>       0.00000000 </v>
   <v>       0.00000000 </v>
   <v>       0.00000000 </v>
   <v>       0.00000000 </v>
   <v>       0.00000000 </v>
   <v>       0.00000000 </v>
   <v>       0.00000000 </v>
   <v>       0.00000000 </v>
   <v>       0.00000000 </v>
   <v>       0.00000000 </v>
   <v>       0.00000000 </v>
   <v>       0.00000000 </v>
   <v>       0.00000000 </v>
   <v>       0.00000000 </v>
   <v>       0.00000000 </v>
   <v>       0.00000000 </v>
   <v>       0.00000000 </v>
   <v>       0.00000000 </v>
   <v>       0.00000000 </v>
   <v>       0.00000000 </v>
   <v>       0.00000000 </v>
   <v>       0.00000000 </v>
   <v>       0.00000000 </v>
  </varray>
 </kpoints>
 <parameters>
  <separator name="general" >
   <i type="string" name="SYSTEM">Band structure</i>
   <i type="logical" name="LCOMPAT"> F  </i>
  </separator>
  <separator name="electronic" >
   <i type="string" name="PREC">normal</i>
   <i name="ENMAX">    500.00000000</i>
   <i name="ENAUG">    322.06900000</i>
   <i name="EDIFF">      0.00010000</i>
   <i type="int" name="IALGO">    38</i>
   <i type="int" name="IWAVPR">    10</i>
   <i type="int" name="NBANDS">     8</i>
   <i name="NELECT">      8.00000000</i>
   <i type="int" name="TURBO">     0</i>
   <i type="int" name="IRESTART">     0</i>
   <i type="int" name="NREBOOT">     0</i>
   <i type="int" name="NMIN">     0</i>
   <i name="EREF">      0.00000000</i>
   <separator name="electronic smearing" >
    <i type="int" name="ISMEAR">     0</i>
    <i name="SIGMA">      0.01000000</i>
    <i name="KSPACING">      0.50000000</i>
    <i type="logical" name="KGAMMA"> T  </i>
   </separator>
   <separator name="electronic projectors" >
    <i type="logical" name="LREAL"> F  </i>
    <v name="ROPT">      0.00000000</v>
    <i type="int" name="LMAXPAW">  -100</i>
    <i type="int" name="LMAXMIX">     2</i>
    <i type="logical" name="NLSPLINE"> F  </i>
   </separator>
   <separator name="electronic startup" >
    <i type="int" name="ISTART">     1</i>
    <i type="int" name="ICHARG">     0</i>
    <i type="int" name="INIWAV">     1</i>
   </separator>
   <separator name="electronic spin" >
    <i type="int" name="ISPIN">     1</i>
    <i type="logical" name="LNONCOLLINEAR"> F  </i>
    <v name="MAGMOM">      1.00000000      1.00000000</v>
    <i name="NUPDOWN">     -1.00000000</i>
    <i type="logical" name="LSORBIT"> F  </i>
    <v name="SAXIS">      0.00000000      0.00000000      1.00000000</v>
    <i type="logical" name="LSPIRAL"> F  </i>
    <v name="QSPIRAL">      0.00000000      0.00000000      0.00000000</v>
    <i type="logical" name="LZEROZ"> F  </i>
   </separator>
   <separator name="electronic exchange-correlation" >
    <i type="logical" name="LASPH"> F  </i>
    <i type="logical" name="LMETAGGA"> F  </i>
   </separator>
   <separator name="electronic convergence" >
    <i type="int" name="NELM">    60</i>
    <i type="int" name="NELMDL">     0</i>
    <i type="int" name="NELMIN">     2</i>
    <i name="ENINI">    500.00000000</i>
    <separator name="electronic convergence detail" >
     <i type="logical" name="LDIAG"> T  </i>
     <i type="logical" name="LSUBROT"> F  </i>
     <i name="WEIMIN">      0.00000000</i>
     <i name="EBREAK">      0.00000313</i>
     <i name="DEPER">      0.30000000</i>
     <i type="int" name="NRMM">     4</i>
     <i name="TIME">      0.40000000</i>
    </separator>
   </separator>
   <separator name="electronic mixer" >
    <i name="AMIX">      0.40000000</i>
    <i name="BMIX">      1.00000000</i>
    <i name="AMIN">      0.10000000</i>
    <i name="AMIX_MAG">      1.60000000</i>
    <i name="BMIX_MAG">      1.00000000</i>
    <separator name="electronic mixer details" >
     <i type="int" name="IMIX">     4</i>
     <i type="logical" name="MIXFIRST"> F  </i>
     <i type="int" name="MAXMIX">   -45</i>
     <i name="WC">    100.00000000</i>
     <i type="int" name="INIMIX">     1</i>
     <i type="int" name="MIXPRE">     1</i>
     <i type="int" name="MREMOVE">     5</i>
    </separator>
   </separator>
   <separator name="electronic dipolcorrection" >
    <i type="logical" name="LDIPOL"> F  </i>
    <i type="logical" name="LMONO"> F  </i>
    <i type="int" name="IDIPOL">     0</i>
    <i name="EPSILON">      1.00000000</i>
    <v name="DIPOL">   -100.00000000   -100.00000000   -100.00000000</v>
    <i name="EFIELD">      0.00000000</i>
   </separator>
  </separator>
  <separator name="grids" >
   <i type="int" name="NGX">    24</i>
   <i type="int" name="NGY">    24</i>
   <i type="int" name="NGZ">    24</i>
   <i type="int" name="NGXF">    48</i>
   <i type="int" name="NGYF">    48</i>
   <i type="int" name="NGZF">    48</i>
   <i type="logical" name="ADDGRID"> F  </i>
  </separator>
  <separator name="ionic" >
   <i type="int" name="NSW">     0</i>
   <i type="int" name="IBRION">    -1</i>
   <i type="int" name="ISIF">     2</i>
   <i name="PSTRESS">      0.00000000</i>
   <i name="EDIFFG">      0.00100000</i>
   <i type="int" name="NFREE">     0</i>
   <i name="POTIM">      0.50000000</i>
   <i name="SMASS">     -3.00000000</i>
   <i name="SCALEE">      1.00000000</i>
  </separator>
  <separator name="ionic md" >
   <i name="TEBEG">      0.00010000</i>
   <i name="TEEND">      0.00010000</i>
   <i type="int" name="NBLOCK">     1</i>
   <i type="int" name="KBLOCK">     1</i>
   <i type="int" name="NPACO">   256</i>
   <i name="APACO">     16.00000000</i>
  </separator>
  <separator name="symmetry" >
   <i type="int" name="ISYM">     2</i>
   <i name="SYMPREC">      0.00001000</i>
  </separator>
  <separator name="dos" >
   <i type="logical" name="LORBIT"> F  </i>
   <v name="RWIGS">     -1.00000000</v>
   <i type="int" name="NEDOS">   301</i>
   <i name="EMIN">     10.00000000</i>
   <i name="EMAX">    -10.00000000</i>
   <i name="EFERMI">      0.00000000</i>
  </separator>
  <separator name="writing" >
   <i type="int" name="NWRITE">     2</i>
   <i type="logical" name="LWAVE"> T  </i>
   <i type="logical" name="LCHARG"> T  </i>
   <i type="logical" name="LPARD"> F  </i>
   <i type="logical" name="LVTOT"> F  </i>
   <i type="logical" name="LVHAR"> F  </i>
   <i type="logical" name="LELF"> F  </i>
   <i type="logical" name="LOPTICS"> F  </i>
   <v name="STM">      0.00000000      0.00000000      0.00000000      0.00000000      0.00000000      0.00000000      0.00000000</v>
  </separator>
  <separator name="performance" >
   <i type="int" name="NPAR">     1</i>
   <i type="int" name="NSIM">     4</i>
   <i type="int" name="NBLK">    -1</i>
   <i type="logical" name="LPLANE"> T  </i>
   <i type="logical" name="LSCALAPACK"> F  </i>
   <i type="logical" name="LSCAAWARE"> F  </i>
   <i type="logical" name="LSCALU"> F  </i>
   <i type="logical" name="LASYNC"> F  </i>
   <i type="logical" name="LORBITALREAL"> F  </i>
  </separator>
  <separator name="miscellaneous" >
   <i type="int" name="IDIOT">     3</i>
   <i type="logical" name="LMUSIC"> F  </i>
   <v name="POMASS">     28.08500000</v>
   <v name="DARWINR">      0.00000000</v>
   <v name="DARWINV">      1.00000000</v>
   <i type="logical" name="LCORR"> T  </i>
  </separator>
  <i type="logical" name="GGA_COMPAT"> T  </i>
  <i type="logical" name="LBERRY"> F  </i>
  <i type="int" name="ICORELEVEL">     0</i>
  <i type="logical" name="LDAU"> F  </i>
  <i type="int" name="I_CONSTRAINED_M">     0</i>
  <separator name="electronic exchange-correlation" >
   <i type="string" name="GGA">PS</i>
   <i type="int" name="VOSKOWN">     0</i>
   <i type="logical" name="LHFCALC"> F  </i>
   <i type="string" name="PRECFOCK"></i>
   <i type="logical" name="LSYMGRAD"> F  </i>
   <i type="logical" name="LHFONE"> F  </i>
   <i type="logical" name="LRHFCALC"> F  </i>
   <i type="logical" name="LTHOMAS"> F  </i>
   <i type="logical" name="LMODELHF"> F  </i>
   <i name="ENCUT4O">     -1.00000000</i>
   <i type="int" name="EXXOEP">     0</i>
   <i type="int" name="FOURORBIT">     0</i>
   <i name="AEXX">      0.00000000</i>
   <i name="HFALPHA">      0.00000000</i>
   <i name="MCALPHA">      0.00000000</i>
   <i name="ALDAX">      1.00000000</i>
   <i name="AGGAX">      1.00000000</i>
   <i name="ALDAC">      1.00000000</i>
   <i name="AGGAC">      1.00000000</i>
   <i type="int" name="NKREDX">     1</i>
   <i type="int" name="NKREDY">     1</i>
   <i type="int" name="NKREDZ">     1</i>
   <i type="logical" name="SHIFTRED"> F  </i>
   <i type="logical" name="ODDONLY"> F  </i>
   <i type="logical" name="EVENONLY"> F  </i>
   <i type="int" name="LMAXFOCK">     0</i>
   <i type="int" name="NMAXFOCKAE">     0</i>
   <i type="logical" name="LFOCKAEDFT"> F  </i>
   <i name="HFSCREEN">      0.00000000</i>
   <i name="HFSCREENC">      0.00000000</i>
   <i type="int" name="NBANDSGWLOW">     0</i>
  </separator>
  <separator name="vdW DFT" >
   <i type="logical" name="LUSE_VDW"> F  </i>
   <i name="Zab_VDW">     -0.84910000</i>
   <i name="PARAM1">      0.12340000</i>
   <i name="PARAM2">      1.00000000</i>
   <i name="PARAM3">      0.00000000</i>
  </separator>
  <separator name="model GW" >
   <i type="int" name="MODEL_GW">     0</i>
   <i name="MODEL_EPS0">     12.20114382</i>
   <i name="MODEL_ALPHA">      1.00000000</i>
  </separator>
  <separator name="linear response parameters" >
   <i type="logical" name="LEPSILON"> F  </i>
   <i type="logical" name="LRPA"> F  </i>
   <i type="logical" name="LNABLA"> F  </i>
   <i type="logical" name="LVEL"> F  </i>
   <i type="int" name="KINTER">     0</i>
   <i name="CSHIFT">      0.10000000</i>
   <i name="OMEGAMAX">     -1.00000000</i>
   <i name="DEG_THRESHOLD">      0.00200000</i>
  </separator>
  <separator name="orbital magnetization" >
   <i type="logical" name="NUCIND"> F  </i>
   <v name="MAGPOS">      0.00000000      0.00000000      0.00000000</v>
   <i type="logical" name="LNICSALL"> T  </i>
   <i type="logical" name="ORBITALMAG"> F  </i>
   <i type="logical" name="LMAGBLOCH"> F  </i>
   <i type="logical" name="LCHIMAG"> F  </i>
   <i type="logical" name="LGAUGE"> T  </i>
   <i type="int" name="MAGATOM">     0</i>
   <v name="MAGDIPOL">      0.00000000      0.00000000      0.00000000</v>
   <v name="AVECCONST">      0.00000000      0.00000000      0.00000000</v>
  </separator>
  <separator name="response functions" >
   <i type="logical" name="LADDER"> F  </i>
   <i type="logical" name="LFXC"> F  </i>
   <i type="logical" name="LHARTREE"> T  </i>
   <i type="int" name="IBSE">     0</i>
   <v type="int" name="KPOINT">    -1     0     0     0</v>
   <i type="logical" name="LTCTE"> F  </i>
   <i type="logical" name="LTETE"> F  </i>
   <i type="logical" name="LTRIPLET"> F  </i>
   <i type="logical" name="LFXCEPS"> F  </i>
   <i type="logical" name="LFXHEG"> F  </i>
   <i type="int" name="NATURALO">     0</i>
   <i type="logical" name="L2ORDER"> F  </i>
   <i type="logical" name="LUSEW"> F  </i>
   <i name="ENCUTGW">     -2.00000000</i>
   <i name="ENCUTGWSOFT">     -2.00000000</i>
   <i name="ENCUTLF">     -1.00000000</i>
   <i type="int" name="LMAXMP2">    -1</i>
   <i name="SCISSOR">      0.00000000</i>
   <i type="int" name="NOMEGA">     0</i>
   <i type="int" name="NOMEGAR">     0</i>
   <i type="int" name="NBANDSGW">    -1</i>
   <i type="int" name="NBANDSO">    -1</i>
   <i type="int" name="NBANDSV">    -1</i>
   <i type="int" name="NELM">     1</i>
   <i type="int" name="NELMHF">     1</i>
   <i type="int" name="DIM">     3</i>
   <i type="int" name="ANTIRES">     0</i>
   <i name="OMEGAMAX">    -30.00000000</i>
   <i name="OMEGAMIN">    -30.00000000</i>
   <i name="OMEGATL">   -200.00000000</i>
   <i type="int" name="OMEGAGRID">     0</i>
   <i name="CSHIFT">     -0.10000000</i>
   <i type="logical" name="SELFENERGY"> F  </i>
   <i type="logical" name="LSPECTRAL"> F  </i>
   <i type="logical" name="LSPECTRALGW"> F  </i>
   <i type="logical" name="LSINGLES"> F  </i>
   <i type="logical" name="LFERMIGW"> F  </i>
   <i type="logical" name="ODDONLYGW"> F  </i>
   <i type="logical" name="EVENONLYGW"> F  </i>
   <i type="int" name="NKREDLFX">     1</i>
   <i type="int" name="NKREDLFY">     1</i>
   <i type="int" name="NKREDLFZ">     1</i>
   <i type="int" name="MAXMEM">  1800</i>
   <i type="int" name="TELESCOPE">     0</i>
   <i type="int" name="TAUPAR">     1</i>
   <i type="int" name="OMEGAPAR">    -1</i>
   <i name="LAMBDA">      1.00000000</i>
  </separator>
  <separator name="External order field" >
   <i name="OFIELD_KAPPA">      0.00000000</i>
   <v name="OFIELD_K">      0.00000000      0.00000000      0.00000000</v>
   <i name="OFIELD_Q6_NEAR">      0.00000000</i>
   <i name="OFIELD_Q6_FAR">      0.00000000</i>
   <i name="OFIELD_A">      0.00000000</i>
  </separator>
 </parameters>
 <atominfo>
  <atoms>       2 </atoms>
  <types>       1 </types>
  <array name="atoms" >
   <dimension dim="1">ion</dimension>
   <field type="string">element</field>
   <field type="int">atomtype</field>
   <set>
    <rc><c>Si</c><c>   1</c></rc>
    <rc><c>Si</c><c>   1</c></rc>
   </set>
  </array>
  <array name="atomtypes" >
   <dimension dim="1">type</dimension>
   <field type="int">atomspertype</field>
   <field type="string">element</field>
   <field>mass</field>
   <field>valence</field>
   <field type="string">pseudopotential</field>
   <set>
    <rc><c>   2</c><c>Si</c><c>     28.08500000</c><c>      4.00000000</c><c>  PAW_PBE Si 05Jan2001                  </c></rc>
   </set>
  </array>
 </atominfo>
 <structure name="initialpos" >
  <crystal>
   <varray name="basis" >
    <v>       0.00000000       2.72950000       2.72950000 </v>
    <v>       2.72950000       0.00000000       2.72950000 </v>
    <v>       2.72950000       2.72950000       0.00000000 </v>
   </varray>
   <i name="volume">     40.67047939 </i>
   <varray name="rec_basis" >
    <v>      -0.18318373       0.18318373       0.18318373 </v>
    <v>       0.18318373      -0.18318373       0.18318373 </v>
    <v>       0.18318373       0.18318373      -0.18318373 </v>
   </varray>
  </crystal>
  <varray name="positions" >
   <v>       0.00000000       0.00000000       0.00000000 </v>
   <v>       0.25000000       0.25000000       0.25000000 </v>
  </varray>
 </structure>
 <calculation>
  <scstep>
   <time name="dav">    2.56    0.66</time>
   <time name="total">    2.79    0.71</time>
   <energy>
    <i name="alphaZ">      3.31081721 </i>
    <i name="ewald">   -227.34932045 </i>
    <i name="hartreedc">    -15.21758521 </i>
    <i name="XCdc">    -16.94291004 </i>
    <i name="pawpsdc">   6828.55937601 </i>
    <i name="pawaedc">  -6794.04767956 </i>
    <i name="eentropy">     -0.00000000 </i>
    <i name="bandstr">     16.76502680 </i>
    <i name="atom">    205.15089164 </i>
    <i name="e_fr_energy">      0.22861639 </i>
    <i name="e_wo_entrp">      0.22861639 </i>
    <i name="e_0_energy">      0.22861639 </i>
   </energy>
  </scstep>
  <scstep>
   <time name="dav">    2.15    0.54</time>
   <time name="total">    2.36    0.59</time>
   <energy>
    <i name="e_fr_energy">     -0.10494900 </i>
    <i name="e_wo_entrp">     -0.10494900 </i>
    <i name="e_0_energy">     -0.10494900 </i>
   </energy>
  </scstep>
  <scstep>
   <time name="dav">    2.95    0.79</time>
   <time name="total">    3.18    0.85</time>
   <energy>
    <i name="e_fr_energy">     -0.05468298 </i>
    <i name="e_wo_entrp">     -0.05468298 </i>
    <i name="e_0_energy">     -0.05468298 </i>
   </energy>
  </scstep>
  <scstep>
   <time name="dav">    2.22    0.56</time>
   <time name="total">    2.43    0.61</time>
   <energy>
    <i name="e_fr_energy">     -0.05396278 </i>
    <i name="e_wo_entrp">     -0.05396278 </i>
    <i name="e_0_energy">     -0.05396278 </i>
   </energy>
  </scstep>
  <scstep>
   <time name="dav">    2.67    0.68</time>
   <time name="total">    2.89    0.73</time>
   <energy>
    <i name="e_fr_energy">     -0.05386273 </i>
    <i name="e_wo_entrp">     -0.05386273 </i>
    <i name="e_0_energy">     -0.05386273 </i>
   </energy>
  </scstep>
  <scstep>
   <time name="dav">    1.80    0.45</time>
   <time name="total">    1.97    0.49</time>
   <energy>
    <i name="alphaZ">      3.31081721 </i>
    <i name="ewald">   -227.34932045 </i>
    <i name="hartreedc">    -18.75860177 </i>
    <i name="XCdc">    -16.45644966 </i>
    <i name="pawpsdc">    856.18931790 </i>
    <i name="pawaedc">   -821.88507440 </i>
    <i name="eentropy">     -0.00000000 </i>
    <i name="bandstr">     19.74454588 </i>
    <i name="atom">    205.15089164 </i>
    <i name="e_fr_energy">     -0.05387365 </i>
    <i name="e_wo_entrp">     -0.05387365 </i>
    <i name="e_0_energy">     -0.05387365 </i>
   </energy>
  </scstep>
  <structure>
   <crystal>
    <varray name="basis" >
     <v>       0.00000000       2.72950000       2.72950000 </v>
     <v>       2.72950000       0.00000000       2.72950000 </v>
     <v>       2.72950000       2.72950000       0.00000000 </v>
    </varray>
    <i name="volume">     40.67047939 </i>
    <varray name="rec_basis" >
     <v>      -0.18318373       0.18318373       0.18318373 </v>
     <v>       0.18318373      -0.18318373       0.18318373 </v>
     <v>       0.18318373       0.18318373      -0.18318373 </v>
    </varray>
   </crystal>
   <varray name="positions" >
    <v>       0.00000000       0.00000000       0.00000000 </v>
    <v>       0.25000000       0.25000000       0.25000000 </v>
   </varray>
  </structure>
  <varray name="forces" >
   <v>      -0.00000000      -0.00000000      -0.00000000 </v>
   <v>       0.00000000       0.00000000       0.00000000 </v>
  </varray>
  <varray name="stress" >
   <v>     291.27605842       0.00000000      -0.00000000 </v>
   <v>       0.00000000     291.27605842       0.00000000 </v>
   <v>       0.00000000      -0.00000000     291.27605842 </v>
  </varray>
  <energy>
   <i name="e_fr_energy">     -0.05387365 </i>
   <i name="e_wo_entrp">     -0.05387365 </i>
   <i name="e_0_energy">     -0.00000000 </i>
  </energy>
  <time name="totalsc">   17.66    4.55</time>
  <eigenvalues>
   <array>
    <dimension dim="1">band</dimension>
    <dimension dim="2">kpoint</dimension>
    <dimension dim="3">spin</dimension>
    <field>eigene</field>
    <field>occ</field>
    <set>
     <set comment="spin 1">
      <set comment="kpoint 1">
       <r>   -5.8507    1.0000 </r>
       <r>    6.1695    1.0000 </r>
       <r>    6.1695    1.0000 </r>
       <r>    6.1695    1.0000 </r>
       <r>    8.4501    0.0000 </r>
       <r>    8.4501    0.0000 </r>
       <r>    8.4501    0.0000 </r>
       <r>    9.3116    0.0000 </r>
      </set>
      <set comment="kpoint 2">
       <r>   -5.7495    1.0000 </r>
       <r>    5.3396    1.0000 </r>
       <r>    5.8240    1.0000 </r>
       <r>    5.9603    1.0000 </r>
       <r>    8.3446    0.0000 </r>
       <r>    8.7741    0.0000 </r>
       <r>    8.9030    0.0000 </r>
       <r>    9.9775    0.0000 </r>
      </set>
      <set comment="kpoint 3">
       <r>   -5.4482    1.0000 </r>
       <r>    3.9184    1.0000 </r>
       <r>    5.2000    1.0000 </r>
       <r>    5.4014    1.0000 </r>
       <r>    8.1449    0.0000 </r>
       <r>    9.2434    0.0000 </r>
       <r>    9.7898    0.0000 </r>
       <r>   10.8553    0.0000 </r>
      </set>
      <set comment="kpoint 4">
       <r>   -5.7404    1.0000 </r>
       <r>    5.1167    1.0000 </r>
       <r>    5.9829    1.0000 </r>
       <r>    5.9829    1.0000 </r>
       <r>    8.4899    0.0000 </r>
       <r>    8.7162    0.0000 </r>
       <r>    8.7162    0.0000 </r>
       <r>   10.1169    0.0000 </r>
      </set>
      <set comment="kpoint 5">
       <r>   -5.5303    1.0000 </r>
       <r>    4.1870    1.0000 </r>
       <r>    5.1458    1.0000 </r>
       <r>    5.8243    1.0000 </r>
       <r>    8.4109    0.0000 </r>
       <r>    8.9712    0.0000 </r>
       <r>    9.3848    0.0000 </r>
       <r>   10.9396    0.0000 </r>
      </set>
      <set comment="kpoint 6">
       <r>   -5.5577    1.0000 </r>
       <r>    4.3069    1.0000 </r>
       <r>    5.0669    1.0000 </r>
       <r>    6.0230    1.0000 </r>
       <r>    8.7499    0.0000 </r>
       <r>    8.8694    0.0000 </r>
       <r>    8.9649    0.0000 </r>
       <r>   10.9699    0.0000 </r>
      </set>
      <set comment="kpoint 7">
       <r>   -5.4136    1.0000 </r>
       <r>    3.3886    1.0000 </r>
       <r>    5.6195    1.0000 </r>
       <r>    5.6195    1.0000 </r>
       <r>    8.1743    0.0000 </r>
       <r>    9.2009    0.0000 </r>
       <r>    9.2009    0.0000 </r>
       <r>   11.6903    0.0000 </r>
      </set>
      <set comment="kpoint 8">
       <r>   -5.1623    1.0000 </r>
       <r>    2.7958    1.0000 </r>
       <r>    4.4833    1.0000 </r>
       <r>    5.7300    1.0000 </r>
       <r>    8.6298    0.0000 </r>
       <r>    9.1526    0.0000 </r>
       <r>    9.5471    0.0000 </r>
       <r>   11.7166    0.0000 </r>
      </set>
      <set comment="kpoint 9">
       <r>   -1.5025    1.0000 </r>
       <r>   -1.5025    1.0000 </r>
       <r>    2.1062    1.0000 </r>
       <r>    2.1062    1.0000 </r>
       <r>   10.0992    0.0000 </r>
       <r>   10.0992    0.0000 </r>
       <r>   10.8524    0.0000 </r>
       <r>   10.8524    0.0000 </r>
      </set>
      <set comment="kpoint 10">
       <r>   -1.7747    1.0000 </r>
       <r>   -1.2412    1.0000 </r>
       <r>    1.9270    1.0000 </r>
       <r>    2.3438    1.0000 </r>
       <r>    9.8472    0.0000 </r>
       <r>   10.1606    0.0000 </r>
       <r>   10.8026    0.0000 </r>
       <r>   11.1547    0.0000 </r>
      </set>
      <set comment="kpoint 11">
       <r>   -2.0434    1.0000 </r>
       <r>   -1.0112    1.0000 </r>
       <r>    1.8287    1.0000 </r>
       <r>    2.6223    1.0000 </r>
       <r>    9.5867    0.0000 </r>
       <r>    9.9481    0.0000 </r>
       <r>   11.0875    0.0000 </r>
       <r>   11.5277    0.0000 </r>
      </set>
      <set comment="kpoint 12">
       <r>   -2.2996    1.0000 </r>
       <r>   -0.8367    1.0000 </r>
       <r>    1.8363    1.0000 </r>
       <r>    2.9282    1.0000 </r>
       <r>    9.3557    0.0000 </r>
       <r>    9.6797    0.0000 </r>
       <r>   11.4879    0.0000 </r>
       <r>   11.9331    0.0000 </r>
      </set>
      <set comment="kpoint 13">
       <r>   -2.5370    1.0000 </r>
       <r>   -0.7343    1.0000 </r>
       <r>    1.9668    1.0000 </r>
       <r>    3.2494    1.0000 </r>
       <r>    9.1653    0.0000 </r>
       <r>    9.4171    0.0000 </r>
       <r>   11.9404    0.0000 </r>
       <r>   12.3584    0.0000 </r>
      </set>
      <set comment="kpoint 14">
       <r>   -2.7518    1.0000 </r>
       <r>   -0.7018    1.0000 </r>
       <r>    2.2173    1.0000 </r>
       <r>    3.5742    1.0000 </r>
       <r>    9.0217    0.0000 </r>
       <r>    9.1700    0.0000 </r>
       <r>   12.4320    0.0000 </r>
       <r>   12.6311    0.0000 </r>
      </set>
      <set comment="kpoint 15">
       <r>   -2.9415    1.0000 </r>
       <r>   -0.7200    1.0000 </r>
       <r>    2.5665    1.0000 </r>
       <r>    3.8901    1.0000 </r>
       <r>    8.9298    0.0000 </r>
       <r>    8.9374    0.0000 </r>
       <r>   11.8160    0.0000 </r>
       <r>   12.9654    0.0000 </r>
      </set>
      <set comment="kpoint 16">
       <r>   -3.1041    1.0000 </r>
       <r>   -0.7658    1.0000 </r>
       <r>    2.9872    1.0000 </r>
       <r>    4.1835    1.0000 </r>
       <r>    8.7115    0.0000 </r>
       <r>    8.8927    0.0000 </r>
       <r>   11.0524    0.0000 </r>
       <r>   13.5225    0.0000 </r>
      </set>
      <set comment="kpoint 17">
       <r>   -3.2385    1.0000 </r>
       <r>   -0.8209    1.0000 </r>
       <r>    3.4536    1.0000 </r>
       <r>    4.4411    1.0000 </r>
       <r>    8.4747    0.0000 </r>
       <r>    8.9094    0.0000 </r>
       <r>   10.3699    0.0000 </r>
       <r>   13.7926    0.0000 </r>
      </set>
      <set comment="kpoint 18">
       <r>   -3.3439    1.0000 </r>
       <r>   -0.8729    1.0000 </r>
       <r>    3.9386    1.0000 </r>
       <r>    4.6509    1.0000 </r>
       <r>    8.1993    0.0000 </r>
       <r>    8.9710    0.0000 </r>
       <r>    9.8146    0.0000 </r>
       <r>   13.7271    0.0000 </r>
      </set>
      <set comment="kpoint 19">
       <r>   -3.4195    1.0000 </r>
       <r>   -0.9144    1.0000 </r>
       <r>    4.4035    1.0000 </r>
       <r>    4.8045    1.0000 </r>
       <r>    7.8728    0.0000 </r>
       <r>    9.0562    0.0000 </r>
       <r>    9.4322    0.0000 </r>
       <r>   13.4930    0.0000 </r>
      </set>
      <set comment="kpoint 20">
       <r>   -3.4650    1.0000 </r>
       <r>   -0.9409    1.0000 </r>
       <r>    4.7757    1.0000 </r>
       <r>    4.8974    1.0000 </r>
       <r>    7.5620    0.0000 </r>
       <r>    9.1317    0.0000 </r>
       <r>    9.2254    0.0000 </r>
       <r>   13.2823    0.0000 </r>
      </set>
      <set comment="kpoint 21">
       <r>   -3.4802    1.0000 </r>
       <r>   -0.9499    1.0000 </r>
       <r>    4.9285    1.0000 </r>
       <r>    4.9285    1.0000 </r>
       <r>    7.4242    0.0000 </r>
       <r>    9.1621    0.0000 </r>
       <r>    9.1621    0.0000 </r>
       <r>   13.2012    0.0000 </r>
      </set>
      <set comment="kpoint 22">
       <r>   -3.5456    1.0000 </r>
       <r>   -0.8568    1.0000 </r>
       <r>    4.9363    1.0000 </r>
       <r>    4.9363    1.0000 </r>
       <r>    7.4332    0.0000 </r>
       <r>    9.1726    0.0000 </r>
       <r>    9.1726    0.0000 </r>
       <r>   13.2173    0.0000 </r>
      </set>
      <set comment="kpoint 23">
       <r>   -3.7177    1.0000 </r>
       <r>   -0.6019    1.0000 </r>
       <r>    4.9600    1.0000 </r>
       <r>    4.9600    1.0000 </r>
       <r>    7.4603    0.0000 </r>
       <r>    9.2027    0.0000 </r>
       <r>    9.2027    0.0000 </r>
       <r>   13.2645    0.0000 </r>
      </set>
      <set comment="kpoint 24">
       <r>   -3.9499    1.0000 </r>
       <r>   -0.2320    1.0000 </r>
       <r>    4.9995    1.0000 </r>
       <r>    4.9995    1.0000 </r>
       <r>    7.5053    0.0000 </r>
       <r>    9.2490    0.0000 </r>
       <r>    9.2490    0.0000 </r>
       <r>   13.3373    0.0000 </r>
      </set>
      <set comment="kpoint 25">
       <r>   -4.2058    1.0000 </r>
       <r>    0.2159    1.0000 </r>
       <r>    5.0548    1.0000 </r>
       <r>    5.0548    1.0000 </r>
       <r>    7.5678    0.0000 </r>
       <r>    9.3049    0.0000 </r>
       <r>    9.3049    0.0000 </r>
       <r>   13.4222    0.0000 </r>
      </set>
      <set comment="kpoint 26">
       <r>   -4.4635    1.0000 </r>
       <r>    0.7190    1.0000 </r>
       <r>    5.1258    1.0000 </r>
       <r>    5.1258    1.0000 </r>
       <r>    7.6474    0.0000 </r>
       <r>    9.3605    0.0000 </r>
       <r>    9.3605    0.0000 </r>
       <r>   13.4789    0.0000 </r>
      </set>
      <set comment="kpoint 27">
       <r>   -4.7106    1.0000 </r>
       <r>    1.2638    1.0000 </r>
       <r>    5.2120    1.0000 </r>
       <r>    5.2120    1.0000 </r>
       <r>    7.7430    0.0000 </r>
       <r>    9.4013    0.0000 </r>
       <r>    9.4013    0.0000 </r>
       <r>   13.3989    0.0000 </r>
      </set>
      <set comment="kpoint 28">
       <r>   -4.9401    1.0000 </r>
       <r>    1.8414    1.0000 </r>
       <r>    5.3129    1.0000 </r>
       <r>    5.3129    1.0000 </r>
       <r>    7.8533    0.0000 </r>
       <r>    9.4097    0.0000 </r>
       <r>    9.4097    0.0000 </r>
       <r>   13.0493    0.0000 </r>
      </set>
      <set comment="kpoint 29">
       <r>   -5.1478    1.0000 </r>
       <r>    2.4452    1.0000 </r>
       <r>    5.4272    1.0000 </r>
       <r>    5.4272    1.0000 </r>
       <r>    7.9758    0.0000 </r>
       <r>    9.3688    0.0000 </r>
       <r>    9.3688    0.0000 </r>
       <r>   12.5422    0.0000 </r>
      </set>
      <set comment="kpoint 30">
       <r>   -5.3310    1.0000 </r>
       <r>    3.0687    1.0000 </r>
       <r>    5.5528    1.0000 </r>
       <r>    5.5528    1.0000 </r>
       <r>    8.1068    0.0000 </r>
       <r>    9.2706    0.0000 </r>
       <r>    9.2706    0.0000 </r>
       <r>   11.9820    0.0000 </r>
      </set>
      <set comment="kpoint 31">
       <r>   -5.4881    1.0000 </r>
       <r>    3.7048    1.0000 </r>
       <r>    5.6864    1.0000 </r>
       <r>    5.6864    1.0000 </r>
       <r>    8.2403    0.0000 </r>
       <r>    9.1220    0.0000 </r>
       <r>    9.1220    0.0000 </r>
       <r>   11.4009    0.0000 </r>
      </set>
      <set comment="kpoint 32">
       <r>   -5.6178    1.0000 </r>
       <r>    4.3429    1.0000 </r>
       <r>    5.8224    1.0000 </r>
       <r>    5.8224    1.0000 </r>
       <r>    8.3668    0.0000 </r>
       <r>    8.9430    0.0000 </r>
       <r>    8.9430    0.0000 </r>
       <r>   10.8162    0.0000 </r>
      </set>
      <set comment="kpoint 33">
       <r>   -5.7193    1.0000 </r>
       <r>    4.9655    1.0000 </r>
       <r>    5.9524    1.0000 </r>
       <r>    5.9524    1.0000 </r>
       <r>    8.4704    0.0000 </r>
       <r>    8.7598    0.0000 </r>
       <r>    8.7598    0.0000 </r>
       <r>   10.2514    0.0000 </r>
      </set>
      <set comment="kpoint 34">
       <r>   -5.7922    1.0000 </r>
       <r>    5.5384    1.0000 </r>
       <r>    6.0641    1.0000 </r>
       <r>    6.0641    1.0000 </r>
       <r>    8.5232    0.0000 </r>
       <r>    8.5999    0.0000 </r>
       <r>    8.5999    0.0000 </r>
       <r>    9.7553    0.0000 </r>
      </set>
      <set comment="kpoint 35">
       <r>   -5.8361    1.0000 </r>
       <r>    5.9867    1.0000 </r>
       <r>    6.1415    1.0000 </r>
       <r>    6.1415    1.0000 </r>
       <r>    8.4897    0.0000 </r>
       <r>    8.4897    0.0000 </r>
       <r>    8.4950    0.0000 </r>
       <r>    9.4200    0.0000 </r>
      </set>
      <set comment="kpoint 36">
       <r>   -5.8507    1.0000 </r>
       <r>    6.1695    1.0000 </r>
       <r>    6.1695    1.0000 </r>
       <r>    6.1695    1.0000 </r>
       <r>    8.4501    0.0000 </r>
       <r>    8.4501    0.0000 </r>
       <r>    8.4501    0.0000 </r>
       <r>    9.3116    0.0000 </r>
      </set>
      <set comment="kpoint 37">
       <r>   -5.8355    1.0000 </r>
       <r>    6.0634    1.0000 </r>
       <r>    6.0964    1.0000 </r>
       <r>    6.0964    1.0000 </r>
       <r>    8.4089    0.0000 </r>
       <r>    8.5417    0.0000 </r>
       <r>    8.5417    0.0000 </r>
       <r>    9.4152    0.0000 </r>
      </set>
      <set comment="kpoint 38">
       <r>   -5.7899    1.0000 </r>
       <r>    5.7809    1.0000 </r>
       <r>    5.9060    1.0000 </r>
       <r>    5.9060    1.0000 </r>
       <r>    8.2925    0.0000 </r>
       <r>    8.7876    0.0000 </r>
       <r>    8.7876    0.0000 </r>
       <r>    9.6829    0.0000 </r>
      </set>
      <set comment="kpoint 39">
       <r>   -5.7141    1.0000 </r>
       <r>    5.3879    1.0000 </r>
       <r>    5.6506    1.0000 </r>
       <r>    5.6506    1.0000 </r>
       <r>    8.1190    0.0000 </r>
       <r>    9.1347    0.0000 </r>
       <r>    9.1347    0.0000 </r>
       <r>   10.0186    0.0000 </r>
      </set>
      <set comment="kpoint 40">
       <r>   -5.6081    1.0000 </r>
       <r>    4.9335    1.0000 </r>
       <r>    5.3690    1.0000 </r>
       <r>    5.3690    1.0000 </r>
       <r>    7.9093    0.0000 </r>
       <r>    9.5439    0.0000 </r>
       <r>    9.5439    0.0000 </r>
       <r>   10.2867    0.0000 </r>
      </set>
      <set comment="kpoint 41">
       <r>   -5.4721    1.0000 </r>
       <r>    4.4455    1.0000 </r>
       <r>    5.0829    1.0000 </r>
       <r>    5.0829    1.0000 </r>
       <r>    7.6820    0.0000 </r>
       <r>    9.9924    0.0000 </r>
       <r>    9.9924    0.0000 </r>
       <r>   10.2956    0.0000 </r>
      </set>
      <set comment="kpoint 42">
       <r>   -5.3065    1.0000 </r>
       <r>    3.9385    1.0000 </r>
       <r>    4.8046    1.0000 </r>
       <r>    4.8046    1.0000 </r>
       <r>    7.4517    0.0000 </r>
       <r>   10.0022    0.0000 </r>
       <r>   10.4670    0.0000 </r>
       <r>   10.4670    0.0000 </r>
      </set>
      <set comment="kpoint 43">
       <r>   -5.1115    1.0000 </r>
       <r>    3.4204    1.0000 </r>
       <r>    4.5409    1.0000 </r>
       <r>    4.5409    1.0000 </r>
       <r>    7.2289    0.0000 </r>
       <r>    9.5660    0.0000 </r>
       <r>   10.9601    0.0000 </r>
       <r>   10.9601    0.0000 </r>
      </set>
      <set comment="kpoint 44">
       <r>   -4.8875    1.0000 </r>
       <r>    2.8957    1.0000 </r>
       <r>    4.2960    1.0000 </r>
       <r>    4.2960    1.0000 </r>
       <r>    7.0212    0.0000 </r>
       <r>    9.0970    0.0000 </r>
       <r>   11.4666    0.0000 </r>
       <r>   11.4666    0.0000 </r>
      </set>
      <set comment="kpoint 45">
       <r>   -4.6351    1.0000 </r>
       <r>    2.3676    1.0000 </r>
       <r>    4.0728    1.0000 </r>
       <r>    4.0728    1.0000 </r>
       <r>    6.8342    0.0000 </r>
       <r>    8.6401    0.0000 </r>
       <r>   11.9834    0.0000 </r>
       <r>   11.9834    0.0000 </r>
      </set>
      <set comment="kpoint 46">
       <r>   -4.3548    1.0000 </r>
       <r>    1.8387    1.0000 </r>
       <r>    3.8729    1.0000 </r>
       <r>    3.8729    1.0000 </r>
       <r>    6.6721    0.0000 </r>
       <r>    8.2140    0.0000 </r>
       <r>   12.5084    0.0000 </r>
       <r>   12.5084    0.0000 </r>
      </set>
      <set comment="kpoint 47">
       <r>   -4.0472    1.0000 </r>
       <r>    1.3111    1.0000 </r>
       <r>    3.6979    1.0000 </r>
       <r>    3.6979    1.0000 </r>
       <r>    6.5381    0.0000 </r>
       <r>    7.8276    0.0000 </r>
       <r>   13.0403    0.0000 </r>
       <r>   13.0403    0.0000 </r>
      </set>
      <set comment="kpoint 48">
       <r>   -3.7132    1.0000 </r>
       <r>    0.7874    1.0000 </r>
       <r>    3.5485    1.0000 </r>
       <r>    3.5485    1.0000 </r>
       <r>    6.4348    0.0000 </r>
       <r>    7.4849    0.0000 </r>
       <r>   13.5783    0.0000 </r>
       <r>   13.5783    0.0000 </r>
      </set>
      <set comment="kpoint 49">
       <r>   -3.3538    1.0000 </r>
       <r>    0.2701    1.0000 </r>
       <r>    3.4254    1.0000 </r>
       <r>    3.4254    1.0000 </r>
       <r>    6.3643    0.0000 </r>
       <r>    7.1877    0.0000 </r>
       <r>   14.1212    0.0000 </r>
       <r>   14.1212    0.0000 </r>
      </set>
      <set comment="kpoint 50">
       <r>   -2.9699    1.0000 </r>
       <r>   -0.2383    1.0000 </r>
       <r>    3.3293    1.0000 </r>
       <r>    3.3293    1.0000 </r>
       <r>    6.3287    0.0000 </r>
       <r>    6.9360    0.0000 </r>
       <r>   14.6667    0.0000 </r>
       <r>   14.6667    0.0000 </r>
      </set>
      <set comment="kpoint 51">
       <r>   -2.5629    1.0000 </r>
       <r>   -0.7353    1.0000 </r>
       <r>    3.2604    1.0000 </r>
       <r>    3.2604    1.0000 </r>
       <r>    6.3295    0.0000 </r>
       <r>    6.7295    0.0000 </r>
       <r>   15.2067    0.0000 </r>
       <r>   15.2067    0.0000 </r>
      </set>
      <set comment="kpoint 52">
       <r>   -2.1342    1.0000 </r>
       <r>   -1.2184    1.0000 </r>
       <r>    3.2189    1.0000 </r>
       <r>    3.2189    1.0000 </r>
       <r>    6.3684    0.0000 </r>
       <r>    6.5669    0.0000 </r>
       <r>   15.7085    0.0000 </r>
       <r>   15.7085    0.0000 </r>
      </set>
      <set comment="kpoint 53">
       <r>   -1.6854    1.0000 </r>
       <r>   -1.6854    1.0000 </r>
       <r>    3.2051    1.0000 </r>
       <r>    3.2051    1.0000 </r>
       <r>    6.4471    0.0000 </r>
       <r>    6.4471    0.0000 </r>
       <r>   15.9850    0.0000 </r>
       <r>   15.9851    0.0000 </r>
      </set>
      <set comment="kpoint 54">
       <r>   -1.6804    1.0000 </r>
       <r>   -1.6804    1.0000 </r>
       <r>    3.1586    1.0000 </r>
       <r>    3.1586    1.0000 </r>
       <r>    6.5273    0.0000 </r>
       <r>    6.5273    0.0000 </r>
       <r>   15.8533    0.0000 </r>
       <r>   15.8535    0.0000 </r>
      </set>
      <set comment="kpoint 55">
       <r>   -1.6660    1.0000 </r>
       <r>   -1.6660    1.0000 </r>
       <r>    3.0331    1.0000 </r>
       <r>    3.0331    1.0000 </r>
       <r>    6.7543    0.0000 </r>
       <r>    6.7543    0.0000 </r>
       <r>   15.4209    0.0000 </r>
       <r>   15.4209    0.0000 </r>
      </set>
      <set comment="kpoint 56">
       <r>   -1.6433    1.0000 </r>
       <r>   -1.6433    1.0000 </r>
       <r>    2.8600    1.0000 </r>
       <r>    2.8600    1.0000 </r>
       <r>    7.0975    0.0000 </r>
       <r>    7.0975    0.0000 </r>
       <r>   14.7844    0.0000 </r>
       <r>   14.7844    0.0000 </r>
      </set>
      <set comment="kpoint 57">
       <r>   -1.6146    1.0000 </r>
       <r>   -1.6146    1.0000 </r>
       <r>    2.6704    1.0000 </r>
       <r>    2.6704    1.0000 </r>
       <r>    7.5272    0.0000 </r>
       <r>    7.5272    0.0000 </r>
       <r>   14.0748    0.0000 </r>
       <r>   14.0748    0.0000 </r>
      </set>
      <set comment="kpoint 58">
       <r>   -1.5830    1.0000 </r>
       <r>   -1.5830    1.0000 </r>
       <r>    2.4880    1.0000 </r>
       <r>    2.4880    1.0000 </r>
       <r>    8.0210    0.0000 </r>
       <r>    8.0210    0.0000 </r>
       <r>   13.3464    0.0000 </r>
       <r>   13.3464    0.0000 </r>
      </set>
      <set comment="kpoint 59">
       <r>   -1.5522    1.0000 </r>
       <r>   -1.5522    1.0000 </r>
       <r>    2.3301    1.0000 </r>
       <r>    2.3301    1.0000 </r>
       <r>    8.5630    0.0000 </r>
       <r>    8.5630    0.0000 </r>
       <r>   12.6220    0.0000 </r>
       <r>   12.6220    0.0000 </r>
      </set>
      <set comment="kpoint 60">
       <r>   -1.5261    1.0000 </r>
       <r>   -1.5261    1.0000 </r>
       <r>    2.2086    1.0000 </r>
       <r>    2.2086    1.0000 </r>
       <r>    9.1385    0.0000 </r>
       <r>    9.1385    0.0000 </r>
       <r>   11.9166    0.0000 </r>
       <r>   11.9166    0.0000 </r>
      </set>
      <set comment="kpoint 61">
       <r>   -1.5086    1.0000 </r>
       <r>   -1.5086    1.0000 </r>
       <r>    2.1323    1.0000 </r>
       <r>    2.1323    1.0000 </r>
       <r>    9.7196    0.0000 </r>
       <r>    9.7196    0.0000 </r>
       <r>   11.2579    0.0000 </r>
       <r>   11.2579    0.0000 </r>
      </set>
      <set comment="kpoint 62">
       <r>   -1.5025    1.0000 </r>
       <r>   -1.5025    1.0000 </r>
       <r>    2.1062    1.0000 </r>
       <r>    2.1062    1.0000 </r>
       <r>   10.0992    0.0000 </r>
       <r>   10.0992    0.0000 </r>
       <r>   10.8524    0.0000 </r>
       <r>   10.8524    0.0000 </r>
      </set>
      <set comment="kpoint 63">
       <r>   -1.6775    1.0000 </r>
       <r>   -1.3396    1.0000 </r>
       <r>    1.9675    1.0000 </r>
       <r>    2.3024    1.0000 </r>
       <r>    9.5506    0.0000 </r>
       <r>   10.1535    0.0000 </r>
       <r>   11.1288    0.0000 </r>
       <r>   11.1313    0.0000 </r>
      </set>
      <set comment="kpoint 64">
       <r>   -1.8211    1.0000 </r>
       <r>   -1.2291    1.0000 </r>
       <r>    1.8519    1.0000 </r>
       <r>    2.5811    1.0000 </r>
       <r>    8.8159    0.0000 </r>
       <r>   10.1099    0.0000 </r>
       <r>   11.5531    0.0000 </r>
       <r>   11.6724    0.0000 </r>
      </set>
      <set comment="kpoint 65">
       <r>   -1.9331    1.0000 </r>
       <r>   -1.1610    1.0000 </r>
       <r>    1.7607    1.0000 </r>
       <r>    2.9147    1.0000 </r>
       <r>    8.1249    0.0000 </r>
       <r>   10.0504    0.0000 </r>
       <r>   12.0310    0.0000 </r>
       <r>   12.2703    0.0000 </r>
      </set>
      <set comment="kpoint 66">
       <r>   -2.0132    1.0000 </r>
       <r>   -1.1230    1.0000 </r>
       <r>    1.6950    1.0000 </r>
       <r>    3.2567    1.0000 </r>
       <r>    7.5337    0.0000 </r>
       <r>   10.0005    0.0000 </r>
       <r>   12.5311    0.0000 </r>
       <r>   12.8979    0.0000 </r>
      </set>
      <set comment="kpoint 67">
       <r>   -2.0613    1.0000 </r>
       <r>   -1.1046    1.0000 </r>
       <r>    1.6553    1.0000 </r>
       <r>    3.5328    1.0000 </r>
       <r>    7.1113    0.0000 </r>
       <r>    9.9687    0.0000 </r>
       <r>   13.0230    0.0000 </r>
       <r>   13.5428    0.0000 </r>
      </set>
      <set comment="kpoint 68">
       <r>   -2.0773    1.0000 </r>
       <r>   -1.0993    1.0000 </r>
       <r>    1.6420    1.0000 </r>
       <r>    3.6435    1.0000 </r>
       <r>    6.9524    0.0000 </r>
       <r>    9.9578    0.0000 </r>
       <r>   13.3364    0.0000 </r>
       <r>   13.9344    0.0000 </r>
      </set>
     </set>
    </set>
   </array>
  </eigenvalues>
  <separator name="orbital magnetization" >
   <v name="MAGDIPOLOUT">      0.00000000      0.00000000      0.00000000</v>
  </separator>
  <dos>
   <i name="efermi">      6.27818409 </i>
   <total>
    <array>
     <dimension dim="1">gridpoints</dimension>
     <dimension dim="2">spin</dimension>
     <field>energy</field>
     <field>total</field>
     <field>integrated</field>
     <set>
      <set comment="spin 1">
       <r>    -6.9425     0.0000     0.0000 </r>
       <r>    -6.8624     0.0000     0.0000 </r>
       <r>    -6.7824     0.0000     0.0000 </r>
       <r>    -6.7023     0.0000     0.0000 </r>
       <r>    -6.6222     0.0000     0.0000 </r>
       <r>    -6.5422     0.0000     0.0000 </r>
       <r>    -6.4621     0.0000     0.0000 </r>
       <r>    -6.3820     0.0000     0.0000 </r>
       <r>    -6.3020     0.0000     0.0000 </r>
       <r>    -6.2219     0.0000     0.0000 </r>
       <r>    -6.1418     0.0000     0.0000 </r>
       <r>    -6.0618     0.0000     0.0000 </r>
       <r>    -5.9817     0.0000     0.0000 </r>
       <r>    -5.9016     0.0000     0.0000 </r>
       <r>    -5.8216     0.3903     0.0312 </r>
       <r>    -5.7415     3.7503     0.3315 </r>
       <r>    -5.6615     1.3125     0.4688 </r>
       <r>    -5.5814     0.0019     0.4689 </r>
       <r>    -5.5013    14.0490     1.5937 </r>
       <r>    -5.4213     1.7260     1.7319 </r>
       <r>    -5.3412     1.0061     1.8125 </r>
       <r>    -5.2611     0.0000     1.8125 </r>
       <r>    -5.1811     0.0094     1.8133 </r>
       <r>    -5.1010     2.3324     2.0000 </r>
       <r>    -5.0209     0.0000     2.0000 </r>
       <r>    -4.9409     0.0000     2.0000 </r>
       <r>    -4.8608     0.0000     2.0000 </r>
       <r>    -4.7807     0.0000     2.0000 </r>
       <r>    -4.7007     0.0000     2.0000 </r>
       <r>    -4.6206     0.0000     2.0000 </r>
       <r>    -4.5405     0.0000     2.0000 </r>
       <r>    -4.4605     0.0000     2.0000 </r>
       <r>    -4.3804     0.0000     2.0000 </r>
       <r>    -4.3004     0.0000     2.0000 </r>
       <r>    -4.2203     0.0000     2.0000 </r>
       <r>    -4.1402     0.0000     2.0000 </r>
       <r>    -4.0602     0.0000     2.0000 </r>
       <r>    -3.9801     0.0000     2.0000 </r>
       <r>    -3.9000     0.0000     2.0000 </r>
       <r>    -3.8200     0.0000     2.0000 </r>
       <r>    -3.7399     0.0000     2.0000 </r>
       <r>    -3.6598     0.0000     2.0000 </r>
       <r>    -3.5798     0.0000     2.0000 </r>
       <r>    -3.4997     0.0000     2.0000 </r>
       <r>    -3.4196     0.0000     2.0000 </r>
       <r>    -3.3396     0.0000     2.0000 </r>
       <r>    -3.2595     0.0000     2.0000 </r>
       <r>    -3.1795     0.0000     2.0000 </r>
       <r>    -3.0994     0.0000     2.0000 </r>
       <r>    -3.0193     0.0000     2.0000 </r>
       <r>    -2.9393     0.0000     2.0000 </r>
       <r>    -2.8592     0.0000     2.0000 </r>
       <r>    -2.7791     0.0000     2.0000 </r>
       <r>    -2.6991     0.0000     2.0000 </r>
       <r>    -2.6190     0.0000     2.0000 </r>
       <r>    -2.5389     0.0000     2.0000 </r>
       <r>    -2.4589     0.0000     2.0000 </r>
       <r>    -2.3788     0.0000     2.0000 </r>
       <r>    -2.2987     0.0000     2.0000 </r>
       <r>    -2.2187     0.0000     2.0000 </r>
       <r>    -2.1386     0.0000     2.0000 </r>
       <r>    -2.0585     0.0000     2.0000 </r>
       <r>    -1.9785     0.0000     2.0000 </r>
       <r>    -1.8984     0.0000     2.0000 </r>
       <r>    -1.8184     0.0000     2.0000 </r>
       <r>    -1.7383     0.0000     2.0000 </r>
       <r>    -1.6582     0.0000     2.0000 </r>
       <r>    -1.5782     0.0000     2.0000 </r>
       <r>    -1.4981     0.0000     2.0000 </r>
       <r>    -1.4180     0.0000     2.0000 </r>
       <r>    -1.3380     0.0000     2.0000 </r>
       <r>    -1.2579     0.0000     2.0000 </r>
       <r>    -1.1778     0.0000     2.0000 </r>
       <r>    -1.0978     0.0000     2.0000 </r>
       <r>    -1.0177     0.0000     2.0000 </r>
       <r>    -0.9376     0.0000     2.0000 </r>
       <r>    -0.8576     0.0000     2.0000 </r>
       <r>    -0.7775     0.0000     2.0000 </r>
       <r>    -0.6974     0.0000     2.0000 </r>
       <r>    -0.6174     0.0000     2.0000 </r>
       <r>    -0.5373     0.0000     2.0000 </r>
       <r>    -0.4573     0.0000     2.0000 </r>
       <r>    -0.3772     0.0000     2.0000 </r>
       <r>    -0.2971     0.0000     2.0000 </r>
       <r>    -0.2171     0.0000     2.0000 </r>
       <r>    -0.1370     0.0000     2.0000 </r>
       <r>    -0.0569     0.0000     2.0000 </r>
       <r>     0.0231     0.0000     2.0000 </r>
       <r>     0.1032     0.0000     2.0000 </r>
       <r>     0.1833     0.0000     2.0000 </r>
       <r>     0.2633     0.0000     2.0000 </r>
       <r>     0.3434     0.0000     2.0000 </r>
       <r>     0.4235     0.0000     2.0000 </r>
       <r>     0.5035     0.0000     2.0000 </r>
       <r>     0.5836     0.0000     2.0000 </r>
       <r>     0.6637     0.0000     2.0000 </r>
       <r>     0.7437     0.0000     2.0000 </r>
       <r>     0.8238     0.0000     2.0000 </r>
       <r>     0.9038     0.0000     2.0000 </r>
       <r>     0.9839     0.0000     2.0000 </r>
       <r>     1.0640     0.0000     2.0000 </r>
       <r>     1.1440     0.0000     2.0000 </r>
       <r>     1.2241     0.0000     2.0000 </r>
       <r>     1.3042     0.0000     2.0000 </r>
       <r>     1.3842     0.0000     2.0000 </r>
       <r>     1.4643     0.0000     2.0000 </r>
       <r>     1.5444     0.0000     2.0000 </r>
       <r>     1.6244     0.0000     2.0000 </r>
       <r>     1.7045     0.0000     2.0000 </r>
       <r>     1.7846     0.0000     2.0000 </r>
       <r>     1.8646     0.0000     2.0000 </r>
       <r>     1.9447     0.0000     2.0000 </r>
       <r>     2.0248     0.0000     2.0000 </r>
       <r>     2.1048     0.0000     2.0000 </r>
       <r>     2.1849     0.0000     2.0000 </r>
       <r>     2.2649     0.0000     2.0000 </r>
       <r>     2.3450     0.0000     2.0000 </r>
       <r>     2.4251     0.0000     2.0000 </r>
       <r>     2.5051     0.0000     2.0000 </r>
       <r>     2.5852     0.0000     2.0000 </r>
       <r>     2.6653     0.0000     2.0000 </r>
       <r>     2.7453     0.0000     2.0000 </r>
       <r>     2.8254     2.3418     2.1875 </r>
       <r>     2.9055     0.0000     2.1875 </r>
       <r>     2.9855     0.0000     2.1875 </r>
       <r>     3.0656     0.0000     2.1875 </r>
       <r>     3.1457     0.0000     2.1875 </r>
       <r>     3.2257     0.0000     2.1875 </r>
       <r>     3.3058     0.0000     2.1875 </r>
       <r>     3.3858     0.4091     2.2203 </r>
       <r>     3.4659     0.7618     2.2812 </r>
       <r>     3.5460     0.0000     2.2812 </r>
       <r>     3.6260     0.0000     2.2812 </r>
       <r>     3.7061     0.0000     2.2812 </r>
       <r>     3.7862     0.0000     2.2812 </r>
       <r>     3.8662     0.0000     2.2813 </r>
       <r>     3.9463     1.5612     2.4062 </r>
       <r>     4.0264     0.0000     2.4062 </r>
       <r>     4.1064     0.0000     2.4062 </r>
       <r>     4.1865     4.4372     2.7615 </r>
       <r>     4.2666     4.9303     3.1563 </r>
       <r>     4.3466     4.6837     3.5312 </r>
       <r>     4.4267     0.0000     3.5312 </r>
       <r>     4.5068     2.3408     3.7187 </r>
       <r>     4.5868     0.0000     3.7188 </r>
       <r>     4.6669     0.0000     3.7188 </r>
       <r>     4.7469     0.0000     3.7188 </r>
       <r>     4.8270     0.0000     3.7188 </r>
       <r>     4.9071     0.0000     3.7188 </r>
       <r>     4.9871     0.0000     3.7188 </r>
       <r>     5.0672     2.4210     3.9126 </r>
       <r>     5.1473     7.7980     4.7181 </r>
       <r>     5.2273     1.5612     5.1562 </r>
       <r>     5.3074     0.0000     5.1563 </r>
       <r>     5.3875     3.1606     5.4093 </r>
       <r>     5.4675     1.5231     5.5312 </r>
       <r>     5.5476     0.0000     5.5312 </r>
       <r>     5.6277     2.0498     5.6954 </r>
       <r>     5.7077     0.0019     5.7189 </r>
       <r>     5.7878     2.3400     5.9063 </r>
       <r>     5.8679    12.4899     6.9062 </r>
       <r>     5.9479     0.1230     6.9161 </r>
       <r>     6.0280    11.2496     7.8168 </r>
       <r>     6.1080     0.0000     7.9062 </r>
       <r>     6.1881     1.1660     7.9996 </r>
       <r>     6.2682     0.0000     8.0000 </r>
       <r>     6.3482     0.0000     8.0000 </r>
       <r>     6.4283     0.0000     8.0000 </r>
       <r>     6.5084     0.0000     8.0000 </r>
       <r>     6.5884     0.0000     8.0000 </r>
       <r>     6.6685     0.0000     8.0000 </r>
       <r>     6.7486     0.0000     8.0000 </r>
       <r>     6.8286     0.0000     8.0000 </r>
       <r>     6.9087     0.0000     8.0000 </r>
       <r>     6.9888     0.0000     8.0000 </r>
       <r>     7.0688     0.0000     8.0000 </r>
       <r>     7.1489     0.0000     8.0000 </r>
       <r>     7.2290     0.0000     8.0000 </r>
       <r>     7.3090     0.0000     8.0000 </r>
       <r>     7.3891     0.0000     8.0000 </r>
       <r>     7.4691     0.0000     8.0000 </r>
       <r>     7.5492     0.0000     8.0000 </r>
       <r>     7.6293     0.0000     8.0000 </r>
       <r>     7.7093     0.0000     8.0000 </r>
       <r>     7.7894     0.0000     8.0000 </r>
       <r>     7.8695     0.0000     8.0000 </r>
       <r>     7.9495     0.0000     8.0000 </r>
       <r>     8.0296     0.0000     8.0000 </r>
       <r>     8.1097     0.0000     8.0000 </r>
       <r>     8.1897     2.7151     8.2174 </r>
       <r>     8.2698     0.0000     8.2188 </r>
       <r>     8.3499     2.4105     8.4117 </r>
       <r>     8.4299     9.3364     9.2163 </r>
       <r>     8.5100     3.5051     9.4996 </r>
       <r>     8.5901     0.0000     9.5000 </r>
       <r>     8.6701     2.3419     9.6875 </r>
       <r>     8.7502     7.0917    10.2553 </r>
       <r>     8.8302     3.1214    10.6875 </r>
       <r>     8.9103     7.3357    11.2748 </r>
       <r>     8.9904    14.0190    12.4349 </r>
       <r>     9.0704     0.0000    12.4375 </r>
       <r>     9.1505     0.9027    12.5098 </r>
       <r>     9.2306     3.8359    12.8169 </r>
       <r>     9.3106     1.6801    12.9514 </r>
       <r>     9.3907     7.6747    13.5659 </r>
       <r>     9.4708     0.0000    13.7188 </r>
       <r>     9.5508     1.6448    13.8504 </r>
       <r>     9.6309     0.0000    13.9062 </r>
       <r>     9.7110     0.0000    13.9062 </r>
       <r>     9.7910     0.8882    13.9774 </r>
       <r>     9.8711     0.0000    14.0312 </r>
       <r>     9.9511     0.0003    14.0313 </r>
       <r>    10.0312     3.1222    14.2812 </r>
       <r>    10.1113     0.5018    14.3214 </r>
       <r>    10.1913     1.8401    14.4688 </r>
       <r>    10.2714     0.0000    14.4688 </r>
       <r>    10.3515     0.0000    14.4688 </r>
       <r>    10.4315     0.0000    14.4688 </r>
       <r>    10.5116     0.0000    14.4688 </r>
       <r>    10.5917     0.0000    14.4688 </r>
       <r>    10.6717     0.0000    14.4688 </r>
       <r>    10.7518     0.0000    14.4688 </r>
       <r>    10.8319     0.0007    14.4688 </r>
       <r>    10.9119     1.5610    14.5938 </r>
       <r>    10.9920    14.0465    15.7184 </r>
       <r>    11.0721     0.0000    15.7188 </r>
       <r>    11.1521     0.0000    15.7188 </r>
       <r>    11.2322     0.0000    15.7188 </r>
       <r>    11.3122     0.0000    15.7188 </r>
       <r>    11.3923     0.0000    15.7188 </r>
       <r>    11.4724     0.0000    15.7188 </r>
       <r>    11.5524     0.0000    15.7188 </r>
       <r>    11.6325     0.0000    15.7188 </r>
       <r>    11.7126     1.8415    15.8662 </r>
       <r>    11.7926     1.6703    16.0000 </r>
       <r>    11.8727     0.0000    16.0000 </r>
       <r>    11.9528     0.0000    16.0000 </r>
       <r>    12.0328     0.0000    16.0000 </r>
       <r>    12.1129     0.0000    16.0000 </r>
       <r>    12.1930     0.0000    16.0000 </r>
       <r>    12.2730     0.0000    16.0000 </r>
       <r>    12.3531     0.0000    16.0000 </r>
       <r>    12.4332     0.0000    16.0000 </r>
       <r>    12.5132     0.0000    16.0000 </r>
       <r>    12.5933     0.0000    16.0000 </r>
       <r>    12.6733     0.0000    16.0000 </r>
       <r>    12.7534     0.0000    16.0000 </r>
       <r>    12.8335     0.0000    16.0000 </r>
       <r>    12.9135     0.0000    16.0000 </r>
       <r>    12.9936     0.0000    16.0000 </r>
       <r>    13.0737     0.0000    16.0000 </r>
       <r>    13.1537     0.0000    16.0000 </r>
       <r>    13.2338     0.0000    16.0000 </r>
       <r>    13.3139     0.0000    16.0000 </r>
       <r>    13.3939     0.0000    16.0000 </r>
       <r>    13.4740     0.0000    16.0000 </r>
       <r>    13.5541     0.0000    16.0000 </r>
       <r>    13.6341     0.0000    16.0000 </r>
       <r>    13.7142     0.0000    16.0000 </r>
       <r>    13.7943     0.0000    16.0000 </r>
       <r>    13.8743     0.0000    16.0000 </r>
       <r>    13.9544     0.0000    16.0000 </r>
       <r>    14.0344     0.0000    16.0000 </r>
       <r>    14.1145     0.0000    16.0000 </r>
       <r>    14.1946     0.0000    16.0000 </r>
       <r>    14.2746     0.0000    16.0000 </r>
       <r>    14.3547     0.0000    16.0000 </r>
       <r>    14.4348     0.0000    16.0000 </r>
       <r>    14.5148     0.0000    16.0000 </r>
       <r>    14.5949     0.0000    16.0000 </r>
       <r>    14.6750     0.0000    16.0000 </r>
       <r>    14.7550     0.0000    16.0000 </r>
       <r>    14.8351     0.0000    16.0000 </r>
       <r>    14.9152     0.0000    16.0000 </r>
       <r>    14.9952     0.0000    16.0000 </r>
       <r>    15.0753     0.0000    16.0000 </r>
       <r>    15.1554     0.0000    16.0000 </r>
       <r>    15.2354     0.0000    16.0000 </r>
       <r>    15.3155     0.0000    16.0000 </r>
       <r>    15.3955     0.0000    16.0000 </r>
       <r>    15.4756     0.0000    16.0000 </r>
       <r>    15.5557     0.0000    16.0000 </r>
       <r>    15.6357     0.0000    16.0000 </r>
       <r>    15.7158     0.0000    16.0000 </r>
       <r>    15.7959     0.0000    16.0000 </r>
       <r>    15.8759     0.0000    16.0000 </r>
       <r>    15.9560     0.0000    16.0000 </r>
       <r>    16.0361     0.0000    16.0000 </r>
       <r>    16.1161     0.0000    16.0000 </r>
       <r>    16.1962     0.0000    16.0000 </r>
       <r>    16.2763     0.0000    16.0000 </r>
       <r>    16.3563     0.0000    16.0000 </r>
       <r>    16.4364     0.0000    16.0000 </r>
       <r>    16.5164     0.0000    16.0000 </r>
       <r>    16.5965     0.0000    16.0000 </r>
       <r>    16.6766     0.0000    16.0000 </r>
       <r>    16.7566     0.0000    16.0000 </r>
       <r>    16.8367     0.0000    16.0000 </r>
       <r>    16.9168     0.0000    16.0000 </r>
       <r>    16.9968     0.0000    16.0000 </r>
       <r>    17.0769     0.0000    16.0000 </r>
      </set>
     </set>
    </array>
   </total>
  </dos>
 </calculation>
 <structure name="finalpos" >
  <crystal>
   <varray name="basis" >
    <v>       0.00000000       2.72950000       2.72950000 </v>
    <v>       2.72950000       0.00000000       2.72950000 </v>
    <v>       2.72950000       2.72950000       0.00000000 </v>
   </varray>
   <i name="volume">     40.67047939 </i>
   <varray name="rec_basis" >
    <v>      -0.18318373       0.18318373       0.18318373 </v>
    <v>       0.18318373      -0.18318373       0.18318373 </v>
    <v>       0.18318373       0.18318373      -0.18318373 </v>
   </varray>
  </crystal>
  <varray name="positions" >
   <v>       0.00000000       0.00000000       0.00000000 </v>
   <v>       0.25000000       0.25000000       0.25000000 </v>
  </varray>
 </structure>
</modeling>
