 running on    1 total cores
 distrk:  each k-point on    1 cores,    1 groups
 distr:  one band on    1 cores,    1 groups
 using from now: INCAR     
 vasp.5.4.1 24Jun15 (build Oct 13 2015 09:47:18) complex                        
  
 POSCAR found :  1 types and       2 ions

 ----------------------------------------------------------------------------- 
|                                                                             |
|  ADVICE TO THIS USER RUNNING 'VASP/VAMP'   (HEAR YOUR MASTER'S VOICE ...):  |
|                                                                             |
|      You enforced a specific xc-type in the INCAR file,                     |
|      a different type was found on the POTCAR file                          |
|          I HOPE YOU KNOW, WHAT YOU ARE  DOING                               |
|                                                                             |
 ----------------------------------------------------------------------------- 

 LDA part: xc-table for Pade appr. of Perdew
 found WAVECAR, reading the header
  number of k-points has changed, file:     8 present:    68
  trying to continue reading WAVECAR, but it might fail
 WAVECAR: different cutoff or change in lattice found
 POSCAR, INCAR and KPOINTS ok, starting setup
 WARNING: small aliasing (wrap around) errors must be expected
 FFT: planning ...
 reading WAVECAR
 the WAVECAR file was read successfully
 initial charge from wavefunction
 entering main loop
       N       E                     dE             d eps       ncg     rms          rms(c)
DAV:   1     0.228616389892E+00    0.22862E+00   -0.37052E+02  1480   0.618E+01    0.303E+01
DAV:   2    -0.104949000891E+00   -0.33357E+00   -0.41778E+00  1160   0.174E+01    0.205E+01
DAV:   3    -0.546829757451E-01    0.50266E-01   -0.22169E-01  1680   0.279E+00    0.521E-01
DAV:   4    -0.539627788044E-01    0.72020E-03   -0.24043E-03  1288   0.366E-01    0.123E-01
DAV:   5    -0.538627272328E-01    0.10005E-03   -0.97399E-04  1592   0.161E-01    0.230E-02
DAV:   6    -0.538736507177E-01   -0.10923E-04   -0.98688E-06   944   0.274E-02
   1 F= -.53873651E-01 E0= -.53873651E-01  d E =-.132293E-54
 writing wavefunctions
