Band structure                          
           1
     0.000000    2.729500    2.729500
     2.729500    0.000000    2.729500
     2.729500    2.729500    0.000000
   Si
   2
Direct configuration=     1
   0.00000000  0.00000000  0.00000000
   0.25000000  0.25000000  0.25000000
